VARIABLES = "X(in)","Y(in)","Z(in)"
TITLE = "Initial Wall Plot"
text  x=5  y=93  t="Initial Wall Plot"
zone t="K = 0" I =37 J = 1 K = 1
1	0	0
0.984808	0.173648	0
0.939693	0.34202	0
0.866025	0.5	0
0.766044	0.642788	0
0.642788	0.766044	0
0.5	0.866025	0
0.34202	0.939693	0
0.173648	0.984808	0
0	1	0
-0.173648	0.984808	0
-0.34202	0.939693	0
-0.5	0.866025	0
-0.642788	0.766044	0
-0.766044	0.642788	0
-0.866025	0.5	0
-0.939693	0.34202	0
-0.984808	0.173648	0
-1	0	0
-0.984808	-0.173648	0
-0.939693	-0.34202	0
-0.866025	-0.5	0
-0.766044	-0.642788	0
-0.642788	-0.766044	0
-0.5	-0.866025	0
-0.34202	-0.939693	0
-0.173648	-0.984808	0
0	-1	0
0.173648	-0.984808	0
0.34202	-0.939693	0
0.5	-0.866025	0
0.642788	-0.766044	0
0.766044	-0.642788	0
0.866025	-0.5	0
0.939693	-0.34202	0
0.984808	-0.173648	0
1	0	0

zone t="K = 1" I =37 J = 1 K = 1
1.00004	0	0.00895562
0.984847	0.173655	0.00895562
0.93973	0.342034	0.00895562
0.86606	0.50002	0.00895562
0.766075	0.642813	0.00895562
0.642813	0.766075	0.00895562
0.50002	0.86606	0.00895562
0.342034	0.93973	0.00895562
0.173655	0.984847	0.00895562
0	1.00004	0.00895562
-0.173655	0.984847	0.00895562
-0.342034	0.93973	0.00895562
-0.50002	0.86606	0.00895562
-0.642813	0.766075	0.00895562
-0.766075	0.642813	0.00895562
-0.86606	0.50002	0.00895562
-0.93973	0.342034	0.00895562
-0.984847	0.173655	0.00895562
-1.00004	0	0.00895562
-0.984847	-0.173655	0.00895562
-0.93973	-0.342034	0.00895562
-0.86606	-0.50002	0.00895562
-0.766075	-0.642813	0.00895562
-0.642813	-0.766075	0.00895562
-0.50002	-0.86606	0.00895562
-0.342034	-0.93973	0.00895562
-0.173655	-0.984847	0.00895562
0	-1.00004	0.00895562
0.173655	-0.984847	0.00895562
0.342034	-0.93973	0.00895562
0.50002	-0.86606	0.00895562
0.642813	-0.766075	0.00895562
0.766075	-0.642813	0.00895562
0.86606	-0.50002	0.00895562
0.93973	-0.342034	0.00895562
0.984847	-0.173655	0.00895562
1.00004	0	0.00895562

zone t="K = 2" I =37 J = 1 K = 1
1.00015	0	0.0174674
0.984955	0.173674	0.0174674
0.939834	0.342071	0.0174674
0.866155	0.500075	0.0174674
0.766159	0.642884	0.0174674
0.642884	0.766159	0.0174674
0.500075	0.866155	0.0174674
0.342071	0.939834	0.0174674
0.173674	0.984955	0.0174674
0	1.00015	0.0174674
-0.173674	0.984955	0.0174674
-0.342071	0.939834	0.0174674
-0.500075	0.866155	0.0174674
-0.642884	0.766159	0.0174674
-0.766159	0.642884	0.0174674
-0.866155	0.500075	0.0174674
-0.939834	0.342071	0.0174674
-0.984955	0.173674	0.0174674
-1.00015	0	0.0174674
-0.984955	-0.173674	0.0174674
-0.939834	-0.342071	0.0174674
-0.866155	-0.500075	0.0174674
-0.766159	-0.642884	0.0174674
-0.642884	-0.766159	0.0174674
-0.500075	-0.866155	0.0174674
-0.342071	-0.939834	0.0174674
-0.173674	-0.984955	0.0174674
0	-1.00015	0.0174674
0.173674	-0.984955	0.0174674
0.342071	-0.939834	0.0174674
0.500075	-0.866155	0.0174674
0.642884	-0.766159	0.0174674
0.766159	-0.642884	0.0174674
0.866155	-0.500075	0.0174674
0.939834	-0.342071	0.0174674
0.984955	-0.173674	0.0174674
1.00015	0	0.0174674

zone t="K = 3" I =37 J = 1 K = 1
1.00022	0	0.0210146
0.985024	0.173686	0.0210146
0.939899	0.342095	0.0210146
0.866216	0.50011	0.0210146
0.766213	0.642929	0.0210146
0.642929	0.766213	0.0210146
0.50011	0.866216	0.0210146
0.342095	0.939899	0.0210146
0.173686	0.985024	0.0210146
0	1.00022	0.0210146
-0.173686	0.985024	0.0210146
-0.342095	0.939899	0.0210146
-0.50011	0.866216	0.0210146
-0.642929	0.766213	0.0210146
-0.766213	0.642929	0.0210146
-0.866216	0.50011	0.0210146
-0.939899	0.342095	0.0210146
-0.985024	0.173686	0.0210146
-1.00022	0	0.0210146
-0.985024	-0.173686	0.0210146
-0.939899	-0.342095	0.0210146
-0.866216	-0.50011	0.0210146
-0.766213	-0.642929	0.0210146
-0.642929	-0.766213	0.0210146
-0.50011	-0.866216	0.0210146
-0.342095	-0.939899	0.0210146
-0.173686	-0.985024	0.0210146
0	-1.00022	0.0210146
0.173686	-0.985024	0.0210146
0.342095	-0.939899	0.0210146
0.50011	-0.866216	0.0210146
0.642929	-0.766213	0.0210146
0.766213	-0.642929	0.0210146
0.866216	-0.50011	0.0210146
0.939899	-0.342095	0.0210146
0.985024	-0.173686	0.0210146
1.00022	0	0.0210146

zone t="K = 4" I =37 J = 1 K = 1
1.00031	0	0.0249341
0.985113	0.173702	0.0249341
0.939984	0.342126	0.0249341
0.866294	0.500155	0.0249341
0.766282	0.642987	0.0249341
0.642987	0.766282	0.0249341
0.500155	0.866294	0.0249341
0.342126	0.939984	0.0249341
0.173702	0.985113	0.0249341
0	1.00031	0.0249341
-0.173702	0.985113	0.0249341
-0.342126	0.939984	0.0249341
-0.500155	0.866294	0.0249341
-0.642987	0.766282	0.0249341
-0.766282	0.642987	0.0249341
-0.866294	0.500155	0.0249341
-0.939984	0.342126	0.0249341
-0.985113	0.173702	0.0249341
-1.00031	0	0.0249341
-0.985113	-0.173702	0.0249341
-0.939984	-0.342126	0.0249341
-0.866294	-0.500155	0.0249341
-0.766282	-0.642987	0.0249341
-0.642987	-0.766282	0.0249341
-0.500155	-0.866294	0.0249341
-0.342126	-0.939984	0.0249341
-0.173702	-0.985113	0.0249341
0	-1.00031	0.0249341
0.173702	-0.985113	0.0249341
0.342126	-0.939984	0.0249341
0.500155	-0.866294	0.0249341
0.642987	-0.766282	0.0249341
0.766282	-0.642987	0.0249341
0.866294	-0.500155	0.0249341
0.939984	-0.342126	0.0249341
0.985113	-0.173702	0.0249341
1.00031	0	0.0249341

zone t="K = 5" I =37 J = 1 K = 1
1.00043	0	0.0292358
0.985231	0.173723	0.0292358
0.940097	0.342167	0.0292358
0.866398	0.500215	0.0292358
0.766374	0.643064	0.0292358
0.643064	0.766374	0.0292358
0.500215	0.866398	0.0292358
0.342167	0.940097	0.0292358
0.173723	0.985231	0.0292358
0	1.00043	0.0292358
-0.173723	0.985231	0.0292358
-0.342167	0.940097	0.0292358
-0.500215	0.866398	0.0292358
-0.643064	0.766374	0.0292358
-0.766374	0.643064	0.0292358
-0.866398	0.500215	0.0292358
-0.940097	0.342167	0.0292358
-0.985231	0.173723	0.0292358
-1.00043	0	0.0292358
-0.985231	-0.173723	0.0292358
-0.940097	-0.342167	0.0292358
-0.866398	-0.500215	0.0292358
-0.766374	-0.643064	0.0292358
-0.643064	-0.766374	0.0292358
-0.500215	-0.866398	0.0292358
-0.342167	-0.940097	0.0292358
-0.173723	-0.985231	0.0292358
0	-1.00043	0.0292358
0.173723	-0.985231	0.0292358
0.342167	-0.940097	0.0292358
0.500215	-0.866398	0.0292358
0.643064	-0.766374	0.0292358
0.766374	-0.643064	0.0292358
0.866398	-0.500215	0.0292358
0.940097	-0.342167	0.0292358
0.985231	-0.173723	0.0292358
1.00043	0	0.0292358

zone t="K = 6" I =37 J = 1 K = 1
1.00058	0	0.0339289
0.985379	0.173749	0.0339289
0.940238	0.342219	0.0339289
0.866528	0.50029	0.0339289
0.766489	0.64316	0.0339289
0.64316	0.766489	0.0339289
0.50029	0.866528	0.0339289
0.342219	0.940238	0.0339289
0.173749	0.985379	0.0339289
0	1.00058	0.0339289
-0.173749	0.985379	0.0339289
-0.342219	0.940238	0.0339289
-0.50029	0.866528	0.0339289
-0.64316	0.766489	0.0339289
-0.766489	0.64316	0.0339289
-0.866528	0.50029	0.0339289
-0.940238	0.342219	0.0339289
-0.985379	0.173749	0.0339289
-1.00058	0	0.0339289
-0.985379	-0.173749	0.0339289
-0.940238	-0.342219	0.0339289
-0.866528	-0.50029	0.0339289
-0.766489	-0.64316	0.0339289
-0.64316	-0.766489	0.0339289
-0.50029	-0.866528	0.0339289
-0.342219	-0.940238	0.0339289
-0.173749	-0.985379	0.0339289
0	-1.00058	0.0339289
0.173749	-0.985379	0.0339289
0.342219	-0.940238	0.0339289
0.50029	-0.866528	0.0339289
0.64316	-0.766489	0.0339289
0.766489	-0.64316	0.0339289
0.866528	-0.50029	0.0339289
0.940238	-0.342219	0.0339289
0.985379	-0.173749	0.0339289
1.00058	0	0.0339289

zone t="K = 7" I =37 J = 1 K = 1
1.00076	0	0.0390225
0.985556	0.17378	0.0390225
0.940407	0.34228	0.0390225
0.866684	0.50038	0.0390225
0.766627	0.643276	0.0390225
0.643276	0.766627	0.0390225
0.50038	0.866684	0.0390225
0.34228	0.940407	0.0390225
0.17378	0.985556	0.0390225
0	1.00076	0.0390225
-0.17378	0.985556	0.0390225
-0.34228	0.940407	0.0390225
-0.50038	0.866684	0.0390225
-0.643276	0.766627	0.0390225
-0.766627	0.643276	0.0390225
-0.866684	0.50038	0.0390225
-0.940407	0.34228	0.0390225
-0.985556	0.17378	0.0390225
-1.00076	0	0.0390225
-0.985556	-0.17378	0.0390225
-0.940407	-0.34228	0.0390225
-0.866684	-0.50038	0.0390225
-0.766627	-0.643276	0.0390225
-0.643276	-0.766627	0.0390225
-0.50038	-0.866684	0.0390225
-0.34228	-0.940407	0.0390225
-0.17378	-0.985556	0.0390225
0	-1.00076	0.0390225
0.17378	-0.985556	0.0390225
0.34228	-0.940407	0.0390225
0.50038	-0.866684	0.0390225
0.643276	-0.766627	0.0390225
0.766627	-0.643276	0.0390225
0.866684	-0.50038	0.0390225
0.940407	-0.34228	0.0390225
0.985556	-0.17378	0.0390225
1.00076	0	0.0390225

zone t="K = 8" I =37 J = 1 K = 1
1.00099	0	0.044525
0.985783	0.17382	0.044525
0.940623	0.342359	0.044525
0.866883	0.500495	0.044525
0.766803	0.643424	0.044525
0.643424	0.766803	0.044525
0.500495	0.866883	0.044525
0.342359	0.940623	0.044525
0.17382	0.985783	0.044525
0	1.00099	0.044525
-0.17382	0.985783	0.044525
-0.342359	0.940623	0.044525
-0.500495	0.866883	0.044525
-0.643424	0.766803	0.044525
-0.766803	0.643424	0.044525
-0.866883	0.500495	0.044525
-0.940623	0.342359	0.044525
-0.985783	0.17382	0.044525
-1.00099	0	0.044525
-0.985783	-0.17382	0.044525
-0.940623	-0.342359	0.044525
-0.866883	-0.500495	0.044525
-0.766803	-0.643424	0.044525
-0.643424	-0.766803	0.044525
-0.500495	-0.866883	0.044525
-0.342359	-0.940623	0.044525
-0.17382	-0.985783	0.044525
0	-1.00099	0.044525
0.17382	-0.985783	0.044525
0.342359	-0.940623	0.044525
0.500495	-0.866883	0.044525
0.643424	-0.766803	0.044525
0.766803	-0.643424	0.044525
0.866883	-0.500495	0.044525
0.940623	-0.342359	0.044525
0.985783	-0.17382	0.044525
1.00099	0	0.044525

zone t="K = 9" I =37 J = 1 K = 1
1.00127	0	0.0504447
0.986058	0.173869	0.0504447
0.940886	0.342455	0.0504447
0.867125	0.500635	0.0504447
0.767017	0.643604	0.0504447
0.643604	0.767017	0.0504447
0.500635	0.867125	0.0504447
0.342455	0.940886	0.0504447
0.173869	0.986058	0.0504447
0	1.00127	0.0504447
-0.173869	0.986058	0.0504447
-0.342455	0.940886	0.0504447
-0.500635	0.867125	0.0504447
-0.643604	0.767017	0.0504447
-0.767017	0.643604	0.0504447
-0.867125	0.500635	0.0504447
-0.940886	0.342455	0.0504447
-0.986058	0.173869	0.0504447
-1.00127	0	0.0504447
-0.986058	-0.173869	0.0504447
-0.940886	-0.342455	0.0504447
-0.867125	-0.500635	0.0504447
-0.767017	-0.643604	0.0504447
-0.643604	-0.767017	0.0504447
-0.500635	-0.867125	0.0504447
-0.342455	-0.940886	0.0504447
-0.173869	-0.986058	0.0504447
0	-1.00127	0.0504447
0.173869	-0.986058	0.0504447
0.342455	-0.940886	0.0504447
0.500635	-0.867125	0.0504447
0.643604	-0.767017	0.0504447
0.767017	-0.643604	0.0504447
0.867125	-0.500635	0.0504447
0.940886	-0.342455	0.0504447
0.986058	-0.173869	0.0504447
1.00127	0	0.0504447

zone t="K = 10" I =37 J = 1 K = 1
1.00161	0	0.0567894
0.986393	0.173928	0.0567894
0.941206	0.342571	0.0567894
0.86742	0.500805	0.0567894
0.767278	0.643822	0.0567894
0.643822	0.767278	0.0567894
0.500805	0.86742	0.0567894
0.342571	0.941206	0.0567894
0.173928	0.986393	0.0567894
0	1.00161	0.0567894
-0.173928	0.986393	0.0567894
-0.342571	0.941206	0.0567894
-0.500805	0.86742	0.0567894
-0.643822	0.767278	0.0567894
-0.767278	0.643822	0.0567894
-0.86742	0.500805	0.0567894
-0.941206	0.342571	0.0567894
-0.986393	0.173928	0.0567894
-1.00161	0	0.0567894
-0.986393	-0.173928	0.0567894
-0.941206	-0.342571	0.0567894
-0.86742	-0.500805	0.0567894
-0.767278	-0.643822	0.0567894
-0.643822	-0.767278	0.0567894
-0.500805	-0.86742	0.0567894
-0.342571	-0.941206	0.0567894
-0.173928	-0.986393	0.0567894
0	-1.00161	0.0567894
0.173928	-0.986393	0.0567894
0.342571	-0.941206	0.0567894
0.500805	-0.86742	0.0567894
0.643822	-0.767278	0.0567894
0.767278	-0.643822	0.0567894
0.86742	-0.500805	0.0567894
0.941206	-0.342571	0.0567894
0.986393	-0.173928	0.0567894
1.00161	0	0.0567894

zone t="K = 11" I =37 J = 1 K = 1
1.00202	0	0.0635667
0.986797	0.173999	0.0635667
0.941591	0.342711	0.0635667
0.867775	0.50101	0.0635667
0.767592	0.644086	0.0635667
0.644086	0.767592	0.0635667
0.50101	0.867775	0.0635667
0.342711	0.941591	0.0635667
0.173999	0.986797	0.0635667
0	1.00202	0.0635667
-0.173999	0.986797	0.0635667
-0.342711	0.941591	0.0635667
-0.50101	0.867775	0.0635667
-0.644086	0.767592	0.0635667
-0.767592	0.644086	0.0635667
-0.867775	0.50101	0.0635667
-0.941591	0.342711	0.0635667
-0.986797	0.173999	0.0635667
-1.00202	0	0.0635667
-0.986797	-0.173999	0.0635667
-0.941591	-0.342711	0.0635667
-0.867775	-0.50101	0.0635667
-0.767592	-0.644086	0.0635667
-0.644086	-0.767592	0.0635667
-0.50101	-0.867775	0.0635667
-0.342711	-0.941591	0.0635667
-0.173999	-0.986797	0.0635667
0	-1.00202	0.0635667
0.173999	-0.986797	0.0635667
0.342711	-0.941591	0.0635667
0.50101	-0.867775	0.0635667
0.644086	-0.767592	0.0635667
0.767592	-0.644086	0.0635667
0.867775	-0.50101	0.0635667
0.941591	-0.342711	0.0635667
0.986797	-0.173999	0.0635667
1.00202	0	0.0635667

zone t="K = 12" I =37 J = 1 K = 1
1.00251	0	0.0707841
0.98728	0.174084	0.0707841
0.942051	0.342879	0.0707841
0.868199	0.501255	0.0707841
0.767967	0.644401	0.0707841
0.644401	0.767967	0.0707841
0.501255	0.868199	0.0707841
0.342879	0.942051	0.0707841
0.174084	0.98728	0.0707841
0	1.00251	0.0707841
-0.174084	0.98728	0.0707841
-0.342879	0.942051	0.0707841
-0.501255	0.868199	0.0707841
-0.644401	0.767967	0.0707841
-0.767967	0.644401	0.0707841
-0.868199	0.501255	0.0707841
-0.942051	0.342879	0.0707841
-0.98728	0.174084	0.0707841
-1.00251	0	0.0707841
-0.98728	-0.174084	0.0707841
-0.942051	-0.342879	0.0707841
-0.868199	-0.501255	0.0707841
-0.767967	-0.644401	0.0707841
-0.644401	-0.767967	0.0707841
-0.501255	-0.868199	0.0707841
-0.342879	-0.942051	0.0707841
-0.174084	-0.98728	0.0707841
0	-1.00251	0.0707841
0.174084	-0.98728	0.0707841
0.342879	-0.942051	0.0707841
0.501255	-0.868199	0.0707841
0.644401	-0.767967	0.0707841
0.767967	-0.644401	0.0707841
0.868199	-0.501255	0.0707841
0.942051	-0.342879	0.0707841
0.98728	-0.174084	0.0707841
1.00251	0	0.0707841

zone t="K = 13" I =37 J = 1 K = 1
1.00308	0	0.0784487
0.987841	0.174183	0.0784487
0.942587	0.343074	0.0784487
0.868693	0.50154	0.0784487
0.768404	0.644767	0.0784487
0.644767	0.768404	0.0784487
0.50154	0.868693	0.0784487
0.343074	0.942587	0.0784487
0.174183	0.987841	0.0784487
0	1.00308	0.0784487
-0.174183	0.987841	0.0784487
-0.343074	0.942587	0.0784487
-0.50154	0.868693	0.0784487
-0.644767	0.768404	0.0784487
-0.768404	0.644767	0.0784487
-0.868693	0.50154	0.0784487
-0.942587	0.343074	0.0784487
-0.987841	0.174183	0.0784487
-1.00308	0	0.0784487
-0.987841	-0.174183	0.0784487
-0.942587	-0.343074	0.0784487
-0.868693	-0.50154	0.0784487
-0.768404	-0.644767	0.0784487
-0.644767	-0.768404	0.0784487
-0.50154	-0.868693	0.0784487
-0.343074	-0.942587	0.0784487
-0.174183	-0.987841	0.0784487
0	-1.00308	0.0784487
0.174183	-0.987841	0.0784487
0.343074	-0.942587	0.0784487
0.50154	-0.868693	0.0784487
0.644767	-0.768404	0.0784487
0.768404	-0.644767	0.0784487
0.868693	-0.50154	0.0784487
0.942587	-0.343074	0.0784487
0.987841	-0.174183	0.0784487
1.00308	0	0.0784487

zone t="K = 14" I =37 J = 1 K = 1
1.00375	0	0.0865677
0.988501	0.174299	0.0865677
0.943216	0.343303	0.0865677
0.869273	0.501875	0.0865677
0.768917	0.645198	0.0865677
0.645198	0.768917	0.0865677
0.501875	0.869273	0.0865677
0.343303	0.943216	0.0865677
0.174299	0.988501	0.0865677
0	1.00375	0.0865677
-0.174299	0.988501	0.0865677
-0.343303	0.943216	0.0865677
-0.501875	0.869273	0.0865677
-0.645198	0.768917	0.0865677
-0.768917	0.645198	0.0865677
-0.869273	0.501875	0.0865677
-0.943216	0.343303	0.0865677
-0.988501	0.174299	0.0865677
-1.00375	0	0.0865677
-0.988501	-0.174299	0.0865677
-0.943216	-0.343303	0.0865677
-0.869273	-0.501875	0.0865677
-0.768917	-0.645198	0.0865677
-0.645198	-0.768917	0.0865677
-0.501875	-0.869273	0.0865677
-0.343303	-0.943216	0.0865677
-0.174299	-0.988501	0.0865677
0	-1.00375	0.0865677
0.174299	-0.988501	0.0865677
0.343303	-0.943216	0.0865677
0.501875	-0.869273	0.0865677
0.645198	-0.768917	0.0865677
0.768917	-0.645198	0.0865677
0.869273	-0.501875	0.0865677
0.943216	-0.343303	0.0865677
0.988501	-0.174299	0.0865677
1.00375	0	0.0865677

zone t="K = 15" I =37 J = 1 K = 1
1.00454	0	0.095148
0.989279	0.174437	0.095148
0.943959	0.343573	0.095148
0.869957	0.50227	0.095148
0.769522	0.645706	0.095148
0.645706	0.769522	0.095148
0.50227	0.869957	0.095148
0.343573	0.943959	0.095148
0.174437	0.989279	0.095148
0	1.00454	0.095148
-0.174437	0.989279	0.095148
-0.343573	0.943959	0.095148
-0.50227	0.869957	0.095148
-0.645706	0.769522	0.095148
-0.769522	0.645706	0.095148
-0.869957	0.50227	0.095148
-0.943959	0.343573	0.095148
-0.989279	0.174437	0.095148
-1.00454	0	0.095148
-0.989279	-0.174437	0.095148
-0.943959	-0.343573	0.095148
-0.869957	-0.50227	0.095148
-0.769522	-0.645706	0.095148
-0.645706	-0.769522	0.095148
-0.50227	-0.869957	0.095148
-0.343573	-0.943959	0.095148
-0.174437	-0.989279	0.095148
0	-1.00454	0.095148
0.174437	-0.989279	0.095148
0.343573	-0.943959	0.095148
0.50227	-0.869957	0.095148
0.645706	-0.769522	0.095148
0.769522	-0.645706	0.095148
0.869957	-0.50227	0.095148
0.943959	-0.343573	0.095148
0.989279	-0.174437	0.095148
1.00454	0	0.095148

zone t="K = 16" I =37 J = 1 K = 1
1.00496	0	0.0994906
0.989692	0.174509	0.0994906
0.944353	0.343717	0.0994906
0.870321	0.50248	0.0994906
0.769844	0.645976	0.0994906
0.645976	0.769844	0.0994906
0.50248	0.870321	0.0994906
0.343717	0.944353	0.0994906
0.174509	0.989692	0.0994906
0	1.00496	0.0994906
-0.174509	0.989692	0.0994906
-0.343717	0.944353	0.0994906
-0.50248	0.870321	0.0994906
-0.645976	0.769844	0.0994906
-0.769844	0.645976	0.0994906
-0.870321	0.50248	0.0994906
-0.944353	0.343717	0.0994906
-0.989692	0.174509	0.0994906
-1.00496	0	0.0994906
-0.989692	-0.174509	0.0994906
-0.944353	-0.343717	0.0994906
-0.870321	-0.50248	0.0994906
-0.769844	-0.645976	0.0994906
-0.645976	-0.769844	0.0994906
-0.50248	-0.870321	0.0994906
-0.343717	-0.944353	0.0994906
-0.174509	-0.989692	0.0994906
0	-1.00496	0.0994906
0.174509	-0.989692	0.0994906
0.343717	-0.944353	0.0994906
0.50248	-0.870321	0.0994906
0.645976	-0.769844	0.0994906
0.769844	-0.645976	0.0994906
0.870321	-0.50248	0.0994906
0.944353	-0.343717	0.0994906
0.989692	-0.174509	0.0994906
1.00496	0	0.0994906

zone t="K = 17" I =37 J = 1 K = 1
1.00544	0	0.104197
0.990165	0.174593	0.104197
0.944805	0.343881	0.104197
0.870737	0.50272	0.104197
0.770212	0.646284	0.104197
0.646284	0.770212	0.104197
0.50272	0.870737	0.104197
0.343881	0.944805	0.104197
0.174593	0.990165	0.104197
0	1.00544	0.104197
-0.174593	0.990165	0.104197
-0.343881	0.944805	0.104197
-0.50272	0.870737	0.104197
-0.646284	0.770212	0.104197
-0.770212	0.646284	0.104197
-0.870737	0.50272	0.104197
-0.944805	0.343881	0.104197
-0.990165	0.174593	0.104197
-1.00544	0	0.104197
-0.990165	-0.174593	0.104197
-0.944805	-0.343881	0.104197
-0.870737	-0.50272	0.104197
-0.770212	-0.646284	0.104197
-0.646284	-0.770212	0.104197
-0.50272	-0.870737	0.104197
-0.343881	-0.944805	0.104197
-0.174593	-0.990165	0.104197
0	-1.00544	0.104197
0.174593	-0.990165	0.104197
0.343881	-0.944805	0.104197
0.50272	-0.870737	0.104197
0.646284	-0.770212	0.104197
0.770212	-0.646284	0.104197
0.870737	-0.50272	0.104197
0.944805	-0.343881	0.104197
0.990165	-0.174593	0.104197
1.00544	0	0.104197

zone t="K = 18" I =37 J = 1 K = 1
1.00591	0	0.108536
0.990628	0.174674	0.108536
0.945246	0.344041	0.108536
0.871144	0.502955	0.108536
0.770572	0.646586	0.108536
0.646586	0.770572	0.108536
0.502955	0.871144	0.108536
0.344041	0.945246	0.108536
0.174674	0.990628	0.108536
0	1.00591	0.108536
-0.174674	0.990628	0.108536
-0.344041	0.945246	0.108536
-0.502955	0.871144	0.108536
-0.646586	0.770572	0.108536
-0.770572	0.646586	0.108536
-0.871144	0.502955	0.108536
-0.945246	0.344041	0.108536
-0.990628	0.174674	0.108536
-1.00591	0	0.108536
-0.990628	-0.174674	0.108536
-0.945246	-0.344041	0.108536
-0.871144	-0.502955	0.108536
-0.770572	-0.646586	0.108536
-0.646586	-0.770572	0.108536
-0.502955	-0.871144	0.108536
-0.344041	-0.945246	0.108536
-0.174674	-0.990628	0.108536
0	-1.00591	0.108536
0.174674	-0.990628	0.108536
0.344041	-0.945246	0.108536
0.502955	-0.871144	0.108536
0.646586	-0.770572	0.108536
0.770572	-0.646586	0.108536
0.871144	-0.502955	0.108536
0.945246	-0.344041	0.108536
0.990628	-0.174674	0.108536
1.00591	0	0.108536

zone t="K = 19" I =37 J = 1 K = 1
1.00649	0	0.113722
0.991199	0.174775	0.113722
0.945791	0.34424	0.113722
0.871646	0.503245	0.113722
0.771016	0.646959	0.113722
0.646959	0.771016	0.113722
0.503245	0.871646	0.113722
0.34424	0.945791	0.113722
0.174775	0.991199	0.113722
0	1.00649	0.113722
-0.174775	0.991199	0.113722
-0.34424	0.945791	0.113722
-0.503245	0.871646	0.113722
-0.646959	0.771016	0.113722
-0.771016	0.646959	0.113722
-0.871646	0.503245	0.113722
-0.945791	0.34424	0.113722
-0.991199	0.174775	0.113722
-1.00649	0	0.113722
-0.991199	-0.174775	0.113722
-0.945791	-0.34424	0.113722
-0.871646	-0.503245	0.113722
-0.771016	-0.646959	0.113722
-0.646959	-0.771016	0.113722
-0.503245	-0.871646	0.113722
-0.34424	-0.945791	0.113722
-0.174775	-0.991199	0.113722
0	-1.00649	0.113722
0.174775	-0.991199	0.113722
0.34424	-0.945791	0.113722
0.503245	-0.871646	0.113722
0.646959	-0.771016	0.113722
0.771016	-0.646959	0.113722
0.871646	-0.503245	0.113722
0.945791	-0.34424	0.113722
0.991199	-0.174775	0.113722
1.00649	0	0.113722

zone t="K = 20" I =37 J = 1 K = 1
1.00699	0	0.118056
0.991692	0.174862	0.118056
0.946261	0.344411	0.118056
0.872079	0.503495	0.118056
0.771399	0.647281	0.118056
0.647281	0.771399	0.118056
0.503495	0.872079	0.118056
0.344411	0.946261	0.118056
0.174862	0.991692	0.118056
0	1.00699	0.118056
-0.174862	0.991692	0.118056
-0.344411	0.946261	0.118056
-0.503495	0.872079	0.118056
-0.647281	0.771399	0.118056
-0.771399	0.647281	0.118056
-0.872079	0.503495	0.118056
-0.946261	0.344411	0.118056
-0.991692	0.174862	0.118056
-1.00699	0	0.118056
-0.991692	-0.174862	0.118056
-0.946261	-0.344411	0.118056
-0.872079	-0.503495	0.118056
-0.771399	-0.647281	0.118056
-0.647281	-0.771399	0.118056
-0.503495	-0.872079	0.118056
-0.344411	-0.946261	0.118056
-0.174862	-0.991692	0.118056
0	-1.00699	0.118056
0.174862	-0.991692	0.118056
0.344411	-0.946261	0.118056
0.503495	-0.872079	0.118056
0.647281	-0.771399	0.118056
0.771399	-0.647281	0.118056
0.872079	-0.503495	0.118056
0.946261	-0.344411	0.118056
0.991692	-0.174862	0.118056
1.00699	0	0.118056

zone t="K = 21" I =37 J = 1 K = 1
1.00768	0	0.123729
0.992371	0.174982	0.123729
0.946909	0.344647	0.123729
0.872676	0.50384	0.123729
0.771928	0.647724	0.123729
0.647724	0.771928	0.123729
0.50384	0.872676	0.123729
0.344647	0.946909	0.123729
0.174982	0.992371	0.123729
0	1.00768	0.123729
-0.174982	0.992371	0.123729
-0.344647	0.946909	0.123729
-0.50384	0.872676	0.123729
-0.647724	0.771928	0.123729
-0.771928	0.647724	0.123729
-0.872676	0.50384	0.123729
-0.946909	0.344647	0.123729
-0.992371	0.174982	0.123729
-1.00768	0	0.123729
-0.992371	-0.174982	0.123729
-0.946909	-0.344647	0.123729
-0.872676	-0.50384	0.123729
-0.771928	-0.647724	0.123729
-0.647724	-0.771928	0.123729
-0.50384	-0.872676	0.123729
-0.344647	-0.946909	0.123729
-0.174982	-0.992371	0.123729
0	-1.00768	0.123729
0.174982	-0.992371	0.123729
0.344647	-0.946909	0.123729
0.50384	-0.872676	0.123729
0.647724	-0.771928	0.123729
0.771928	-0.647724	0.123729
0.872676	-0.50384	0.123729
0.946909	-0.344647	0.123729
0.992371	-0.174982	0.123729
1.00768	0	0.123729

zone t="K = 22" I =37 J = 1 K = 1
1.00823	0	0.128058
0.992913	0.175077	0.128058
0.947426	0.344835	0.128058
0.873153	0.504115	0.128058
0.772349	0.648078	0.128058
0.648078	0.772349	0.128058
0.504115	0.873153	0.128058
0.344835	0.947426	0.128058
0.175077	0.992913	0.128058
0	1.00823	0.128058
-0.175077	0.992913	0.128058
-0.344835	0.947426	0.128058
-0.504115	0.873153	0.128058
-0.648078	0.772349	0.128058
-0.772349	0.648078	0.128058
-0.873153	0.504115	0.128058
-0.947426	0.344835	0.128058
-0.992913	0.175077	0.128058
-1.00823	0	0.128058
-0.992913	-0.175077	0.128058
-0.947426	-0.344835	0.128058
-0.873153	-0.504115	0.128058
-0.772349	-0.648078	0.128058
-0.648078	-0.772349	0.128058
-0.504115	-0.873153	0.128058
-0.344835	-0.947426	0.128058
-0.175077	-0.992913	0.128058
0	-1.00823	0.128058
0.175077	-0.992913	0.128058
0.344835	-0.947426	0.128058
0.504115	-0.873153	0.128058
0.648078	-0.772349	0.128058
0.772349	-0.648078	0.128058
0.873153	-0.504115	0.128058
0.947426	-0.344835	0.128058
0.992913	-0.175077	0.128058
1.00823	0	0.128058

zone t="K = 23" I =37 J = 1 K = 1
1.00905	0	0.134226
0.99372	0.17522	0.134226
0.948197	0.345115	0.134226
0.873863	0.504525	0.134226
0.772977	0.648605	0.134226
0.648605	0.772977	0.134226
0.504525	0.873863	0.134226
0.345115	0.948197	0.134226
0.17522	0.99372	0.134226
0	1.00905	0.134226
-0.17522	0.99372	0.134226
-0.345115	0.948197	0.134226
-0.504525	0.873863	0.134226
-0.648605	0.772977	0.134226
-0.772977	0.648605	0.134226
-0.873863	0.504525	0.134226
-0.948197	0.345115	0.134226
-0.99372	0.17522	0.134226
-1.00905	0	0.134226
-0.99372	-0.17522	0.134226
-0.948197	-0.345115	0.134226
-0.873863	-0.504525	0.134226
-0.772977	-0.648605	0.134226
-0.648605	-0.772977	0.134226
-0.504525	-0.873863	0.134226
-0.345115	-0.948197	0.134226
-0.17522	-0.99372	0.134226
0	-1.00905	0.134226
0.17522	-0.99372	0.134226
0.345115	-0.948197	0.134226
0.504525	-0.873863	0.134226
0.648605	-0.772977	0.134226
0.772977	-0.648605	0.134226
0.873863	-0.504525	0.134226
0.948197	-0.345115	0.134226
0.99372	-0.17522	0.134226
1.00905	0	0.134226

zone t="K = 24" I =37 J = 1 K = 1
1.00964	0	0.138549
0.994301	0.175322	0.138549
0.948751	0.345317	0.138549
0.874374	0.50482	0.138549
0.773429	0.648984	0.138549
0.648984	0.773429	0.138549
0.50482	0.874374	0.138549
0.345317	0.948751	0.138549
0.175322	0.994301	0.138549
0	1.00964	0.138549
-0.175322	0.994301	0.138549
-0.345317	0.948751	0.138549
-0.50482	0.874374	0.138549
-0.648984	0.773429	0.138549
-0.773429	0.648984	0.138549
-0.874374	0.50482	0.138549
-0.948751	0.345317	0.138549
-0.994301	0.175322	0.138549
-1.00964	0	0.138549
-0.994301	-0.175322	0.138549
-0.948751	-0.345317	0.138549
-0.874374	-0.50482	0.138549
-0.773429	-0.648984	0.138549
-0.648984	-0.773429	0.138549
-0.50482	-0.874374	0.138549
-0.345317	-0.948751	0.138549
-0.175322	-0.994301	0.138549
0	-1.00964	0.138549
0.175322	-0.994301	0.138549
0.345317	-0.948751	0.138549
0.50482	-0.874374	0.138549
0.648984	-0.773429	0.138549
0.773429	-0.648984	0.138549
0.874374	-0.50482	0.138549
0.948751	-0.345317	0.138549
0.994301	-0.175322	0.138549
1.00964	0	0.138549

zone t="K = 25" I =37 J = 1 K = 1
1.0106	0	0.145221
0.995247	0.175489	0.145221
0.949653	0.345646	0.145221
0.875205	0.5053	0.145221
0.774165	0.649601	0.145221
0.649601	0.774165	0.145221
0.5053	0.875205	0.145221
0.345646	0.949653	0.145221
0.175489	0.995247	0.145221
0	1.0106	0.145221
-0.175489	0.995247	0.145221
-0.345646	0.949653	0.145221
-0.5053	0.875205	0.145221
-0.649601	0.774165	0.145221
-0.774165	0.649601	0.145221
-0.875205	0.5053	0.145221
-0.949653	0.345646	0.145221
-0.995247	0.175489	0.145221
-1.0106	0	0.145221
-0.995247	-0.175489	0.145221
-0.949653	-0.345646	0.145221
-0.875205	-0.5053	0.145221
-0.774165	-0.649601	0.145221
-0.649601	-0.774165	0.145221
-0.5053	-0.875205	0.145221
-0.345646	-0.949653	0.145221
-0.175489	-0.995247	0.145221
0	-1.0106	0.145221
0.175489	-0.995247	0.145221
0.345646	-0.949653	0.145221
0.5053	-0.875205	0.145221
0.649601	-0.774165	0.145221
0.774165	-0.649601	0.145221
0.875205	-0.5053	0.145221
0.949653	-0.345646	0.145221
0.995247	-0.175489	0.145221
1.0106	0	0.145221

zone t="K = 26" I =37 J = 1 K = 1
1.01124	0	0.149537
0.995877	0.1756	0.149537
0.950255	0.345864	0.149537
0.87576	0.50562	0.149537
0.774655	0.650013	0.149537
0.650013	0.774655	0.149537
0.50562	0.87576	0.149537
0.345864	0.950255	0.149537
0.1756	0.995877	0.149537
0	1.01124	0.149537
-0.1756	0.995877	0.149537
-0.345864	0.950255	0.149537
-0.50562	0.87576	0.149537
-0.650013	0.774655	0.149537
-0.774655	0.650013	0.149537
-0.87576	0.50562	0.149537
-0.950255	0.345864	0.149537
-0.995877	0.1756	0.149537
-1.01124	0	0.149537
-0.995877	-0.1756	0.149537
-0.950255	-0.345864	0.149537
-0.87576	-0.50562	0.149537
-0.774655	-0.650013	0.149537
-0.650013	-0.774655	0.149537
-0.50562	-0.87576	0.149537
-0.345864	-0.950255	0.149537
-0.1756	-0.995877	0.149537
0	-1.01124	0.149537
0.1756	-0.995877	0.149537
0.345864	-0.950255	0.149537
0.50562	-0.87576	0.149537
0.650013	-0.774655	0.149537
0.774655	-0.650013	0.149537
0.87576	-0.50562	0.149537
0.950255	-0.345864	0.149537
0.995877	-0.1756	0.149537
1.01124	0	0.149537

zone t="K = 27" I =37 J = 1 K = 1
1.01236	0	0.156722
0.99698	0.175794	0.156722
0.951307	0.346248	0.156722
0.876729	0.50618	0.156722
0.775513	0.650732	0.156722
0.650732	0.775513	0.156722
0.50618	0.876729	0.156722
0.346248	0.951307	0.156722
0.175794	0.99698	0.156722
0	1.01236	0.156722
-0.175794	0.99698	0.156722
-0.346248	0.951307	0.156722
-0.50618	0.876729	0.156722
-0.650732	0.775513	0.156722
-0.775513	0.650732	0.156722
-0.876729	0.50618	0.156722
-0.951307	0.346248	0.156722
-0.99698	0.175794	0.156722
-1.01236	0	0.156722
-0.99698	-0.175794	0.156722
-0.951307	-0.346248	0.156722
-0.876729	-0.50618	0.156722
-0.775513	-0.650732	0.156722
-0.650732	-0.775513	0.156722
-0.50618	-0.876729	0.156722
-0.346248	-0.951307	0.156722
-0.175794	-0.99698	0.156722
0	-1.01236	0.156722
0.175794	-0.99698	0.156722
0.346248	-0.951307	0.156722
0.50618	-0.876729	0.156722
0.650732	-0.775513	0.156722
0.775513	-0.650732	0.156722
0.876729	-0.50618	0.156722
0.951307	-0.346248	0.156722
0.99698	-0.175794	0.156722
1.01236	0	0.156722

zone t="K = 28" I =37 J = 1 K = 1
1.01305	0	0.16103