VARIABLES = "X(in)","Y(in)","Z(in)","R(in)","P(psia)","PT(psia)","T(R)","TT(R)","RHO(lbm/ft3)","Mach","Velocity(ft/s)","Theta(deg)","Psi(deg)","I","K","BodyFlag"
TITLE = "Volume Mesh Plot"
text  x=5  y=93  t="Characteristic Mesh Plot" 
zone t="All data" I = 22 J = 1 K = 33
0.714286	0	0	0.714286	1000	2135.14	530	658.26	5.09176	1.1	1241.53	0	0	67	0	0
0.71426	0	0.0567894	0.71426	1004.23	2135.14	530.64	658.26	5.10715	1.09659	1238.43	-0.0368677	-2.32036e-013	67	10	0
0.714417	0	0.118056	0.714417	976.462	2135.14	526.405	658.26	5.00586	1.11911	1258.81	0.458765	-2.57949e-013	67	20	0
0.715302	0	0.173035	0.715302	920.321	2135.14	517.574	658.26	4.79855	1.1658	1300.28	1.44452	2.5388e-013	67	30	0
0.72129	0	0.293378	0.72129	776.918	2135.14	493.122	658.26	4.25172	1.29399	1408.75	4.30982	-2.59953e-012	67	40	0
0.739033	0	0.460307	0.739033	627.218	2135.14	463.869	658.26	3.64894	1.44752	1528.44	7.57098	-8.60266e-012	67	50	0
0.76807	0	0.650566	0.76807	524.004	2135.14	440.642	658.26	3.20917	1.57141	1617.18	9.49961	-4.81174e-012	67	60	0
0.803696	0	0.855724	0.803696	456.935	2135.14	423.732	658.26	2.91009	1.66355	1678.84	9.97945	2.88636e-014	67	70	0
0.839713	0	1.065	0.839713	409.099	2135.14	410.553	658.26	2.68907	1.73688	1725.36	9.44049	1.22779e-012	67	80	0
0.871048	0	1.26224	0.871048	371.773	2135.14	399.483	658.26	2.51144	1.79969	1763.49	8.59992	4.67159e-013	67	90	0
0.891697	0	1.40372	0.891697	347.215	2135.14	391.758	658.26	2.39179	1.84427	1789.62	8.01793	-2.83296e-013	67	100	0
0.977022	0	2.09148	0.977022	243.453	2135.14	353.969	658.26	1.85606	2.07323	1912.3	6.40785	-1.61024e-013	67	110	0
1.1387	0	3.6207	1.1387	118.655	2135.14	288.261	658.26	1.11082	2.53333	2108.68	6.08309	9.15962e-014	67	120	0
1.34056	0	5.2994	1.34056	70.5832	2135.14	248.504	658.26	0.766499	2.87132	2219.08	7.96155	2.70903e-013	67	130	0
1.48492	0	6.27465	1.48492	54.7388	2135.14	231.094	658.26	0.63922	3.04011	2265.74	8.66299	-5.41107e-014	67	140	0
1.5205	0	6.50811	1.5205	51.2716	2135.14	226.814	658.26	0.61003	3.084	2277.06	8.65499	-1.5257e-013	67	150	0
1.58085	0	6.90731	1.58085	45.8459	2135.14	219.68	658.26	0.563189	3.15947	2295.81	8.51926	-2.90654e-013	67	160	0
1.65851	0	7.43534	1.65851	39.8656	2135.14	211.08	658.26	0.509677	3.25464	2318.21	8.19472	-4.38706e-013	67	170	0
1.74772	0	8.07285	1.74772	34.361	2135.14	202.306	658.26	0.458353	3.35692	2340.84	7.73682	-7.28034e-013	67	180	0
1.84383	0	8.80313	1.84383	29.6721	2135.14	194.001	658.26	0.412751	3.4591	2362.06	7.27851	-5.1293e-013	67	190	0
1.94096	0	9.58324	1.94096	25.695	2135.14	186.186	658.26	0.37243	3.56055	2381.86	6.94335	-2.59219e-013	67	200	0
2.04425	0	10.4454	2.04425	21.9219	2135.14	177.927	658.26	0.332492	3.67397	2402.61	6.74648	-9.37996e-015	67	210	0
0.700561	0.13935	0	0.714286	1000	2135.14	530	658.26	5.09176	1.1	1241.53	0	0	68	0	0
0.700536	0.139346	0.0567894	0.714261	1004.15	2135.14	530.627	658.26	5.10683	1.09666	1238.49	-0.0353254	-0.00518144	68	10	0
0.700693	0.139384	0.118056	0.714422	976.466	2135.14	526.406	658.26	5.00587	1.11911	1258.8	0.454133	0.100965	68	20	0
0.701565	0.139568	0.173035	0.715313	920.563	2135.14	517.613	658.26	4.79945	1.16559	1300.1	1.42181	0.293167	68	30	0
0.707458	0.140754	0.293378	0.721324	777.264	2135.14	493.185	658.26	4.25307	1.29366	1408.48	4.23803	0.844487	68	40	0
0.72488	0.144185	0.460307	0.739081	627.059	2135.14	463.836	658.26	3.64828	1.4477	1528.57	7.42639	1.46608	68	50	0
0.753355	0.149791	0.650566	0.768103	523.536	2135.14	440.529	658.26	3.20712	1.57202	1617.6	9.31387	1.85829	68	60	0
0.78829	0.156738	0.855724	0.803721	456.653	2135.14	423.657	658.26	2.90881	1.66396	1679.1	9.78254	1.9746	68	70	0
0.823589	0.163809	1.065	0.839722	409.256	2135.14	410.598	658.26	2.68981	1.73662	1725.2	9.24671	1.86981	68	80	0
0.854276	0.169942	1.26224	0.871016	372.188	2135.14	399.61	658.26	2.51344	1.79897	1763.06	8.41907	1.68745	68	90	0
0.874493	0.173948	1.40372	0.891625	347.575	2135.14	391.874	658.26	2.39356	1.8436	1789.23	7.84999	1.55911	68	100	0
0.958361	0.190579	2.09148	0.977126	243.486	2135.14	353.983	658.26	1.85624	2.07314	1912.25	6.31852	1.26096	68	110	0
1.11678	0.221799	3.6207	1.1386	118.461	2135.14	288.127	658.26	1.10952	2.53438	2109.07	5.92485	1.18728	68	120	0
1.31416	0.260858	5.2994	1.3398	70.7307	2135.14	248.652	658.26	0.767642	2.86994	2218.68	7.80694	1.52503	68	130	0
1.45545	0.288327	6.27465	1.48374	54.6507	2135.14	230.988	658.26	0.638484	3.04119	2266.02	8.46529	1.6687	68	140	0
1.49022	0.295145	6.50811	1.51916	51.1858	2135.14	226.705	658.26	0.6093	3.08512	2277.35	8.45674	1.67476	68	150	0
1.54921	0.306776	6.90731	1.57929	45.7929	2135.14	219.607	658.26	0.562723	3.16025	2296	8.3278	1.65792	68	160	0
1.62517	0.32181	7.43534	1.65672	39.8585	2135.14	211.069	658.26	0.509612	3.25476	2318.24	8.02027	1.59882	68	170	0
1.71254	0.339098	8.07285	1.74579	34.3728	2135.14	202.326	658.26	0.458466	3.35668	2340.79	7.58156	1.50749	68	180	0
1.80675	0.357705	8.80313	1.84182	29.6754	2135.14	194.007	658.26	0.412783	3.45902	2362.05	7.1331	1.41594	68	190	0
1.9019	0.376504	9.58324	1.93881	25.6924	2135.14	186.181	658.26	0.372404	3.56062	2381.87	6.79685	1.35033	68	200	0
2.00295	0.396487	10.4454	2.04182	21.9271	2135.14	177.939	658.26	0.332548	3.6738	2402.58	6.5967	1.31065	68	210	0
0.659914	0.273345	0	0.714286	1000	2135.14	530	658.26	5.09176	1.1	1241.53	0	0	69	0	0
0.659891	0.273336	0.0567894	0.714261	1004.05	2135.14	530.613	658.26	5.10649	1.09673	1238.56	-0.0317575	-0.0128559	69	10	0
0.660044	0.2734	0.118056	0.714427	976.468	2135.14	526.406	658.26	5.00588	1.1191	1258.8	0.435495	0.181261	69	20	0
0.660874	0.273744	0.173035	0.715325	920.823	2135.14	517.655	658.26	4.80042	1.16537	1299.9	1.34762	0.558963	69	30	0
0.666446	0.276053	0.293378	0.721357	777.611	2135.14	493.248	658.26	4.25442	1.29333	1408.22	4.002	1.65986	69	40	0
0.682865	0.28285	0.460307	0.739127	626.899	2135.14	463.802	658.26	3.64761	1.44788	1528.71	6.98855	2.90915	69	50	0
0.709668	0.293949	0.650566	0.768137	523.071	2135.14	440.418	658.26	3.20508	1.57262	1618.01	8.76489	3.66102	69	60	0
0.742573	0.307578	0.855724	0.803753	456.375	2135.14	423.584	658.26	2.90754	1.66437	1679.37	9.21127	3.85159	69	70	0
0.775822	0.32135	1.065	0.839742	409.427	2135.14	410.647	658.26	2.69061	1.73635	1725.03	8.70146	3.63474	69	80	0
0.804696	0.33331	1.26224	0.870994	372.614	2135.14	399.741	658.26	2.5155	1.79822	1762.61	7.91385	3.30062	69	90	0
0.823701	0.341181	1.40372	0.891565	347.942	2135.14	391.993	658.26	2.39537	1.84291	1788.83	7.3749	3.07274	69	100	0
0.902853	0.373956	2.09148	0.977234	243.498	2135.14	353.988	658.26	1.85631	2.07311	1912.24	5.9832	2.48729	69	110	0
1.05193	0.435704	3.6207	1.1386	118.284	2135.14	288.003	658.26	1.10834	2.53535	2109.42	5.54245	2.30205	69	120	0
1.23708	0.512331	5.2994	1.33897	70.8454	2135.14	248.767	658.26	0.768531	2.86887	2218.37	7.33347	3.05528	69	130	0
1.36964	0.567258	6.27465	1.48247	54.573	2135.14	230.894	658.26	0.637836	3.04214	2266.27	7.93262	3.31007	69	140	0
1.40224	0.580762	6.50811	1.51775	51.1163	2135.14	226.617	658.26	0.608709	3.08604	2277.58	7.92696	3.30736	69	150	0
1.45757	0.603687	6.90731	1.57764	45.7578	2135.14	219.559	658.26	0.562415	3.16077	2296.12	7.81279	3.25812	69	160	0
1.52891	0.633228	7.43534	1.65485	39.8603	2135.14	211.072	658.26	0.509628	3.25473	2318.23	7.53401	3.13922	69	170	0
1.61106	0.667243	8.07285	1.74377	34.3808	2135.14	202.339	658.26	0.458542	3.35652	2340.75	7.12939	2.96842	69	180	0
1.69969	0.703943	8.80313	1.8397	29.6697	2135.14	193.996	658.26	0.412727	3.45916	2362.07	6.70806	2.79216	69	190	0
1.78915	0.741005	9.58324	1.93653	25.6852	2135.14	186.166	658.26	0.372329	3.56082	2381.91	6.38569	2.65783	69	200	0
1.88405	0.780327	10.4454	2.03925	21.9346	2135.14	177.956	658.26	0.332629	3.67356	2402.53	6.19086	2.57604	69	210	0
0.593907	0.396836	0	0.714286	1000	2135.14	530	658.26	5.09176	1.1	1241.53	0	0	70	0	0
0.593886	0.396822	0.0567894	0.714261	1004.13	2135.14	530.624	658.26	5.10676	1.09668	1238.5	-0.028272	-0.0208295	70	10	0
0.594025	0.396906	0.118056	0.714423	976.481	2135.14	526.408	658.26	5.00593	1.11909	1258.79	0.393192	0.250829	70	20	0
0.594773	0.397394	0.173035	0.715316	920.636	2135.14	517.625	658.26	4.79972	1.16553	1300.04	1.21363	0.79922	70	30	0
0.59978	0.400723	0.293378	0.721329	777.324	2135.14	493.196	658.26	4.2533	1.29361	1408.44	3.59318	2.40401	70	40	0
0.614529	0.410614	0.460307	0.739088	627.045	2135.14	463.833	658.26	3.64822	1.44772	1528.59	6.27792	4.23675	70	50	0
0.638632	0.426782	0.650566	0.768111	523.501	2135.14	440.521	658.26	3.20697	1.57206	1617.63	7.87938	5.31751	70	60	0
0.668251	0.446571	0.855724	0.803732	456.635	2135.14	423.653	658.26	2.90872	1.66399	1679.12	8.28946	5.57466	70	70	0
0.698216	0.466531	1.065	0.839736	409.262	2135.14	410.6	658.26	2.68984	1.73661	1725.2	7.84012	5.2617	70	80	0
0.724253	0.483893	1.26224	0.87103	372.2	2135.14	399.614	658.26	2.5135	1.79894	1763.05	7.13051	4.79392	70	90	0
0.741381	0.495354	1.40372	0.891639	347.583	2135.14	391.877	658.26	2.3936	1.84359	1789.22	6.63987	4.47538	70	100	0
0.812437	0.542886	2.09148	0.977128	243.454	2135.14	353.97	658.26	1.85607	2.07322	1912.29	5.35249	3.59025	70	110	0
0.946532	0.632784	3.6207	1.13857	118.476	2135.14	288.137	658.26	1.10962	2.53431	2109.04	5.02398	3.3594	70	120	0
1.11373	0.744669	5.2994	1.33975	70.7055	2135.14	248.627	658.26	0.767447	2.87018	2218.75	6.58363	4.46442	70	130	0
1.23304	0.825096	6.27465	1.48363	54.6543	2135.14	230.992	658.26	0.638514	3.04114	2266.01	7.14989	4.83873	70	140	0
1.26245	0.84485	6.50811	1.51906	51.1947	2135.14	226.716	658.26	0.609376	3.085	2277.32	7.14885	4.82917	70	150	0
1.31239	0.878335	6.90731	1.57919	45.8049	2135.14	219.624	658.26	0.562828	3.16008	2295.95	7.04695	4.74938	70	160	0
1.37675	0.921418	7.43534	1.65664	39.8653	2135.14	211.079	658.26	0.509674	3.25464	2318.21	6.7888	4.57035	70	170	0
1.45076	0.970975	8.07285	1.74571	34.3698	2135.14	202.321	658.26	0.458437	3.35674	2340.8	6.41476	4.31913	70	180	0
1.53052	1.02442	8.80313	1.84171	29.6671	2135.14	193.992	658.26	0.412701	3.45922	2362.09	6.03367	4.06138	70	190	0
1.61106	1.07837	9.58324	1.93866	25.6866	2135.14	186.169	658.26	0.372344	3.56078	2381.9	5.75046	3.86679	70	200	0
1.69661	1.13566	10.4454	2.04162	21.9274	2135.14	177.939	658.26	0.332551	3.67379	2402.57	5.58178	3.75213	70	210	0
0.505076	0.505076	0	0.714286	1000	2135.14	530	658.26	5.09176	1.1	1241.53	0	0	71	0	0
0.505059	0.505058	0.0567894	0.71426	1004.22	2135.14	530.638	658.26	5.10709	1.0966	1238.44	-0.0254247	-0.0260971	71	10	0
0.505171	0.505169	0.118056	0.714418	976.477	2135.14	526.408	658.26	5.00591	1.1191	1258.79	0.326091	0.324066	71	20	0
0.505798	0.505794	0.173035	0.715304	920.383	2135.14	517.584	658.26	4.79878	1.16575	1300.23	1.02346	1.02127	71	30	0
0.510037	0.510029	0.293378	0.721296	776.975	2135.14	493.132	658.26	4.25194	1.29394	1408.71	3.0476	3.05083	71	40	0
0.522584	0.522577	0.460307	0.73904	627.21	2135.14	463.867	658.26	3.64891	1.44753	1528.45	5.34519	5.36942	71	50	0
0.543115	0.543108	0.650566	0.768076	523.971	2135.14	440.634	658.26	3.20902	1.57145	1617.21	6.70197	6.74737	71	60	0
0.568309	0.568295	0.855724	0.803701	456.908	2135.14	423.725	658.26	2.90997	1.66359	1678.86	7.03982	7.09092	71	70	0
0.593782	0.593758	1.065	0.839718	409.088	2135.14	410.55	658.26	2.68902	1.73689	1725.37	6.66147	6.70441	71	80	0
0.615943	0.615911	1.26224	0.871052	371.772	2135.14	399.482	658.26	2.51144	1.7997	1763.5	6.07004	6.10283	71	90	0
0.630543	0.630509	1.40372	0.891699	347.212	2135.14	391.757	658.26	2.39178	1.84428	1789.62	5.65998	5.68703	71	100	0
0.690867	0.690834	2.09148	0.97701	243.433	2135.14	353.961	658.26	1.85595	2.07328	1912.32	4.52651	4.53949	71	110	0
0.805229	0.805123	3.6207	1.13869	118.641	2135.14	288.251	658.26	1.11072	2.53341	2108.71	4.29657	4.30776	71	120	0
0.947949	0.947776	5.2994	1.34048	70.5725	2135.14	248.493	658.26	0.766416	2.87142	2219.11	5.61999	5.64354	71	130	0
1.05001	1.0498	6.27465	1.48479	54.7317	2135.14	231.086	658.26	0.63916	3.04019	2265.76	6.11331	6.14734	71	140	0
1.07517	1.07495	6.50811	1.52036	51.2686	2135.14	226.81	658.26	0.610005	3.08403	2277.07	6.1082	6.14271	71	150	0
1.11785	1.11763	6.90731	1.58072	45.8483	2135.14	219.683	658.26	0.56321	3.15943	2295.8	6.01363	6.04689	71	160	0
1.17277	1.17255	7.43534	1.65839	39.8697	2135.14	211.086	658.26	0.509714	3.25457	2318.19	5.78599	5.8152	71	170	0
1.23586	1.23563	8.07285	1.74761	34.3612	2135.14	202.306	658.26	0.458355	3.35692	2340.84	5.46346	5.48714	71	180	0
1.30383	1.30358	8.80313	1.84372	29.6675	2135.14	193.992	658.26	0.412705	3.45921	2362.08	5.1396	5.15876	71	190	0
1.3725	1.37223	9.58324	1.94082	25.6896	2135.14	186.175	658.26	0.372375	3.5607	2381.89	4.90231	4.91932	71	200	0
1.44551	1.44523	10.4454	2.04406	21.9198	2135.14	177.922	658.26	0.332469	3.67404	2402.62	4.76299	4.77959	71	210	0
0.396836	0.593907	0	0.714286	1000	2135.14	530	658.26	5.09176	1.1	1241.53	0	0	72	0	0
0.396822	0.593886	0.0567894	0.71426	1004.15	2135.14	530.628	658.26	5.10686	1.09665	1238.48	-0.0209919	-0.0292024	72	10	0
0.396906	0.594023	0.118056	0.714421	976.457	2135.14	526.405	658.26	5.00584	1.11911	1258.81	0.250874	0.391156	72	20	0
0.397394	0.594769	0.173035	0.715312	920.535	2135.14	517.609	658.26	4.79935	1.16562	1300.12	0.799179	1.21138	72	30	0
0.400723	0.599771	0.293378	0.721322	777.227	2135.14	493.178	658.26	4.25292	1.2937	1408.51	2.39896	3.59455	72	40	0
0.410613	0.614517	0.460307	0.739077	627.056	2135.14	463.835	658.26	3.64826	1.4477	1528.58	4.21096	6.29407	72	50	0
0.42678	0.638615	0.650566	0.768095	523.555	2135.14	440.534	658.26	3.2072	1.57199	1617.58	5.26724	7.91075	72	60	0
0.44657	0.668224	0.855724	0.803709	456.655	2135.14	423.658	658.26	2.90882	1.66396	1679.1	5.51734	8.32528	72	70	0
0.466535	0.698177	1.065	0.839706	409.237	2135.14	410.593	658.26	2.68972	1.73665	1725.22	5.21358	7.87026	72	80	0
0.4839	0.724207	1.26224	0.870997	372.163	2135.14	399.603	658.26	2.51332	1.79901	1763.09	4.75745	7.15398	72	90	0
0.495363	0.741333	1.40372	0.891605	347.551	2135.14	391.867	658.26	2.39345	1.84365	1789.26	4.44566	6.65971	72	100	0
0.542895	0.81239	2.09148	0.977094	243.48	2135.14	353.981	658.26	1.85621	2.07315	1912.26	3.57408	5.3616	72	110	0
0.632826	0.946393	3.6207	1.13848	118.464	2135.14	288.129	658.26	1.10954	2.53437	2109.06	3.34867	5.02911	72	120	0
0.744765	1.11355	5.2994	1.33966	70.7082	2135.14	248.63	658.26	0.767468	2.87015	2218.74	4.43798	6.60356	72	130	0
0.825235	1.23284	6.27465	1.48354	54.6397	2135.14	230.974	658.26	0.638392	3.04132	2266.05	4.80226	7.17198	72	140	0
0.844993	1.26223	6.50811	1.51896	51.1804	2135.14	226.698	658.26	0.609255	3.08519	2277.36	4.79213	7.1707	72	150	0
0.878479	1.31215	6.90731	1.57907	45.7947	2135.14	219.61	658.26	0.562739	3.16023	2295.99	4.71312	7.06817	72	160	0
0.921556	1.37649	7.43534	1.6565	39.8629	2135.14	211.076	658.26	0.509652	3.25469	2318.22	4.53779	6.80905	72	170	0
0.971115	1.4505	8.07285	1.74557	34.3735	2135.14	202.327	658.26	0.458472	3.35667	2340.79	4.29283	6.43356	72	180	0
1.02458	1.53027	8.80313	1.8416	29.671	2135.14	193.999	658.26	0.41274	3.45913	2362.07	4.04139	6.05037	72	190	0
1.07857	1.61084	9.58324	1.93859	25.6867	2135.14	186.169	658.26	0.372345	3.56077	2381.9	3.85041	5.76488	72	200	0
1.1359	1.69641	10.4454	2.04158	21.9242	2135.14	177.932	658.26	0.332516	3.6739	2402.59	3.73622	5.59447	72	210	0
0.273345	0.659914	0	0.714286	1000	2135.14	530	658.26	5.09176	1.1	1241.53	0	0	73	0	0
0.273336	0.659891	0.0567894	0.71426	1004.07	2135.14	530.616	658.26	5.10656	1.09672	1238.54	-0.0136233	-0.0321647	73	10	0
0.273398	0.660043	0.118056	0.714425	976.449	2135.14	526.403	658.26	5.00581	1.11912	1258.82	0.179234	0.434953	73	20	0
0.273741	0.660872	0.173035	0.715322	920.742	2135.14	517.642	658.26	4.80012	1.16544	1299.96	0.556934	1.34684	73	30	0
0.276047	0.666443	0.293378	0.721351	777.551	2135.14	493.237	658.26	4.25419	1.29339	1408.26	1.65616	4.00236	73	40	0
0.282848	0.682857	0.460307	0.739119	626.916	2135.14	463.805	658.26	3.64769	1.44786	1528.69	2.88897	6.99585	73	50	0
0.29395	0.709654	0.650566	0.768125	523.115	2135.14	440.428	658.26	3.20528	1.57256	1617.97	3.61846	8.78069	73	60	0
0.307577	0.742553	0.855724	0.803734	456.384	2135.14	423.586	658.26	2.90758	1.66436	1679.36	3.80091	9.23023	73	70	0
0.321346	0.775797	1.065	0.839716	409.388	2135.14	410.636	658.26	2.69043	1.73641	1725.07	3.59189	8.7176	73	80	0
0.333303	0.804668	1.26224	0.870966	372.567	2135.14	399.726	658.26	2.51527	1.7983	1762.66	3.26912	7.9262	73	90	0
0.341175	0.823671	1.40372	0.891535	347.904	2135.14	391.98	658.26	2.39518	1.84299	1788.88	3.04804	7.38498	73	100	0
0.373968	0.902806	2.09148	0.977195	243.52	2135.14	353.997	658.26	1.85643	2.07305	1912.21	2.47494	5.98675	73	110	0
0.435708	1.05184	3.6207	1.13851	118.257	2135.14	287.985	658.26	1.10816	2.53549	2109.47	2.29255	5.54359	73	120	0
0.512428	1.23696	5.2994	1.3389	70.8474	2135.14	248.769	658.26	0.768547	2.86885	2218.37	3.03077	7.34359	73	130	0
0.567306	1.36949	6.27465	1.48234	54.5598	2135.14	230.878	658.26	0.637726	3.0423	2266.31	3.27431	7.94239	73	140	0
0.580794	1.40206	6.50811	1.5176	51.1043	2135.14	226.602	658.26	0.608607	3.08619	2277.62	3.27225	7.93664	73	150	0
0.603701	1.45738	6.90731	1.57747	45.75	2135.14	219.548	658.26	0.562346	3.16089	2296.15	3.22643	7.82245	73	160	0
0.633242	1.52869	7.43534	1.65466	39.8588	2135.14	211.07	658.26	0.509615	3.25476	2318.23	3.11342	7.54394	73	170	0
0.667281	1.61085	8.07285	1.74358	34.3831	2135.14	202.343	658.26	0.458564	3.35647	2340.74	2.9478	7.13961	73	180	0
0.704002	1.69949	8.80313	1.83954	29.6707	2135.14	193.998	658.26	0.412737	3.45913	2362.07	2.77374	6.71792	73	190	0
0.741058	1.78898	9.58324	1.9364	25.6826	2135.14	186.16	658.26	0.372302	3.56089	2381.92	2.63984	6.39427	73	200	0
0.780352	1.8839	10.4454	2.03912	21.9301	2135.14	177.946	658.26	0.33258	3.6737	2402.56	2.55924	6.19757	73	210	0
0.13935	0.700561	0	0.714286	1000	2135.14	530	658.26	5.09176	1.1	1241.53	0	0	74	0	0
0.139345	0.700536	0.0567894	0.714261	1004.13	2135.14	530.625	658.26	5.10678	1.09667	1238.5	-0.00589031	-0.0348843	74	10	0
0.139382	0.700694	0.118056	0.714422	976.459	2135.14	526.405	658.26	5.00585	1.11911	1258.81	0.0987839	0.455102	74	20	0
0.139564	0.701567	0.173035	0.715314	920.576	2135.14	517.615	658.26	4.7995	1.16558	1300.09	0.290926	1.42249	74	30	0
0.140747	0.707459	0.293378	0.721324	777.269	2135.14	493.186	658.26	4.25309	1.29366	1408.48	0.841973	4.23754	74	40	0
0.144182	0.724876	0.460307	0.739076	627.057	2135.14	463.835	658.26	3.64827	1.4477	1528.58	1.45586	7.42649	74	50	0
0.149794	0.753346	0.650566	0.768094	523.528	2135.14	440.528	658.26	3.20709	1.57203	1617.61	1.83468	9.31761	74	60	0
0.15674	0.788278	0.855724	0.80371	456.633	2135.14	423.652	658.26	2.90872	1.66399	1679.12	1.94476	9.78806	74	70	0
0.163805	0.823577	1.065	0.839709	409.245	2135.14	410.595	658.26	2.68975	1.73664	1725.21	1.84388	9.2515	74	80	0
0.169933	0.854263	1.26224	0.871001	372.184	2135.14	399.609	658.26	2.51343	1.79897	1763.06	1.66839	8.42188	74	90	0
0.173938	0.874477	1.40372	0.891608	347.571	2135.14	391.873	658.26	2.39354	1.84361	1789.24	1.54438	7.85131	74	100	0
0.19058	0.95832	2.09148	0.977086	243.453	2135.14	353.97	658.26	1.85607	2.07322	1912.3	1.2534	6.31815	74	110	0
0.221774	1.11666	3.6207	1.13847	118.484	2135.14	288.142	658.26	1.10968	2.53426	2109.02	1.18075	5.9244	74	120	0
0.260856	1.31402	5.2994	1.33966	70.6848	2135.14	248.606	658.26	0.767287	2.87037	2218.81	1.5111	7.80469	74	130	0
0.288326	1.45525	6.27465	1.48354	54.6435	2135.14	230.979	658.26	0.638425	3.04127	2266.04	1.65061	8.46701	74	140	0
0.295144	1.49001	6.50811	1.51896	51.1884	2135.14	226.708	658.26	0.609322	3.08509	2277.34	1.65676	8.45962	74	150	0
0.306777	1.549	6.90731	1.57908	45.8042	2135.14	219.623	658.26	0.562823	3.16009	2295.96	1.64061	8.33188	74	160	0
0.321811	1.62496	7.43534	1.65652	39.8671	2135.14	211.082	658.26	0.50969	3.25461	2318.2	1.58302	8.02439	74	170	0
0.339095	1.71235	8.07285	1.7456	34.3694	2135.14	202.32	658.26	0.458433	3.35675	2340.8	1.49367	7.58446	74	180	0
0.357691	1.80656	8.80313	1.84163	29.6634	2135.14	193.985	658.26	0.412664	3.45931	2362.1	1.40406	7.13462	74	190	0
0.376478	1.90169	9.58324	1.9386	25.6825	2135.14	186.16	658.26	0.372301	3.56089	2381.92	1.34006	6.79758	74	200	0
0.396453	2.00272	10.4454	2.04159	21.9257	2135.14	177.936	658.26	0.332533	3.67385	2402.58	1.30173	6.59697	74	210	0
4.37359e-017	0.714286	0	0.714286	1000	2135.14	530	658.26	5.09176	1.1	1241.53	0	0	75	0	0
0	0.714261	0.0567894	0.714261	1004.2	2135.14	530.635	658.26	5.10703	1.09661	1238.45	-3.60115e-007	-0.0359992	75	10	0
0	0.714419	0.118056	0.714419	976.477	2135.14	526.408	658.26	5.00591	1.1191	1258.79	2.25451e-005	0.460552	75	20	0
0	0.715306	0.173035	0.715306	920.408	2135.14	517.588	658.26	4.79887	1.16572	1300.21	0.000110666	1.44652	75	30	0
0	0.721298	0.293378	0.721298	777.022	2135.14	493.141	658.26	4.25212	1.29389	1408.67	0.000376086	4.31123	75	40	0
0	0.739041	0.460307	0.739041	627.221	2135.14	463.87	658.26	3.64895	1.44752	1528.44	0.000571844	7.57002	75	50	0
0	0.768075	0.650566	0.768075	523.939	2135.14	440.626	658.26	3.20888	1.57149	1617.24	0.000253392	9.49916	75	60	0
0	0.803701	0.855724	0.803701	456.88	2135.14	423.717	658.26	2.90984	1.66363	1678.89	0.000105496	9.9797	75	70	0
0	0.839719	1.065	0.839719	409.085	2135.14	410.549	658.26	2.689	1.7369	1725.37	0.000173863	9.44064	75	80	0
0	0.871054	1.26224	0.871054	371.783	2135.14	399.486	658.26	2.51149	1.79968	1763.48	8.54005e-005	8.59923	75	90	0
0	0.891699	1.40372	0.891699	347.223	2135.14	391.761	658.26	2.39183	1.84426	1789.61	-7.73763e-006	8.0164	75	100	0
0	0.977005	2.09148	0.977005	243.418	2135.14	353.955	658.26	1.85587	2.07331	1912.34	-0.000109209	6.4077	75	110	0
0	1.1387	3.6207	1.1387	118.632	2135.14	288.245	658.26	1.11067	2.53345	2108.73	4.46636e-005	6.08013	75	120	0
0	1.34047	5.2994	1.34047	70.5677	2135.14	248.488	658.26	0.766379	2.87146	2219.13	9.93693e-005	7.95744	75	130	0
0	1.48477	6.27465	1.48477	54.7256	2135.14	231.078	658.26	0.639109	3.04027	2265.78	0.000628441	8.6609	75	140	0
0	1.52034	6.50811	1.52034	51.2633	2135.14	226.803	658.26	0.609959	3.0841	2277.09	0.000402937	8.65433	75	150	0
0	1.5807	6.90731	1.5807	45.8448	2135.14	219.678	658.26	0.563179	3.15949	2295.81	-8.1363e-005	8.52068	75	160	0
0	1.65837	7.43534	1.65837	39.8685	2135.14	211.084	658.26	0.509704	3.25459	2318.2	-0.000545528	8.19734	75	170	0
0	1.74761	8.07285	1.74761	34.3612	2135.14	202.306	658.26	0.458355	3.35692	2340.84	-0.000527902	7.73848	75	180	0
0	1.84373	8.80313	1.84373	29.6665	2135.14	193.991	658.26	0.412695	3.45923	2362.09	-6.53385e-006	7.27756	75	190	0
0	1.94083	9.58324	1.94083	25.6873	2135.14	186.17	658.26	0.372351	3.56076	2381.9	0.000451959	6.94016	75	200	0
0	2.04406	10.4454	2.04406	21.9176	2135.14	177.917	658.26	0.332445	3.67411	2402.63	0.000417193	6.74266	75	210	0
-0.13935	0.700561	0	0.714286	1000	2135.14	530	658.26	5.09176	1.1	1241.53	0	0	76	0	0
-0.139345	0.700536	0.0567894	0.714261	1004.13	2135.14	530.625	658.26	5.10678	1.09667	1238.5	0.00589078	-0.0348933	76	10	0
-0.139382	0.700694	0.118056	0.714422	976.463	2135.14	526.405	658.26	5.00586	1.11911	1258.81	-0.0988023	0.455221	76	20	0
-0.139564	0.701567	0.173035	0.715315	920.581	2135.14	517.616	658.26	4.79952	1.16558	1300.08	-0.291007	1.42302	76	30	0
-0.140747	0.707461	0.293378	0.721326	777.283	2135.14	493.188	658.26	4.25314	1.29364	1408.47	-0.8422	4.23851	76	40	0
-0.144183	0.724881	0.460307	0.739082	627.057	2135.14	463.835	658.26	3.64827	1.4477	1528.58	-1.45613	7.42762	76	50	0
-0.149796	0.753354	0.650566	0.768102	523.519	2135.14	440.525	658.26	3.20704	1.57204	1617.61	-1.83488	9.31833	76	60	0
-0.156742	0.788289	0.855724	0.803721	456.638	2135.14	423.654	658.26	2.90874	1.66399	1679.12	-1.94486	9.78895	76	70	0
-0.163808	0.823592	1.065	0.839724	409.246	2135.14	410.596	658.26	2.68976	1.73664	1725.21	-1.84397	9.25239	76	80	0
-0.169936	0.854281	1.26224	0.871019	372.179	2135.14	399.607	658.26	2.5134	1.79898	1763.07	-1.66855	8.4227	76	90	0
-0.173942	0.874496	1.40372	0.891628	347.563	2135.14	391.871	658.26	2.39351	1.84362	1789.24	-1.5446	7.85215	76	100	0
-0.190585	0.958343	2.09148	0.97711	243.45	2135.14	353.968	658.26	1.85605	2.07323	1912.3	-1.25329	6.31774	76	110	0
-0.221751	1.11666	3.6207	1.13846	118.481	2135.14	288.141	658.26	1.10966	2.53428	2109.03	-1.18033	5.92292	76	120	0
-0.26085	1.31398	5.2994	1.33962	70.6976	2135.14	248.619	658.26	0.767386	2.87025	2218.77	-1.51027	7.80521	76	130	0
-0.288294	1.45522	6.27465	1.48351	54.6394	2135.14	230.974	658.26	0.63839	3.04132	2266.05	-1.64915	8.4672	76	140	0
-0.295107	1.48998	6.50811	1.51892	51.1813	2135.14	226.699	658.26	0.609262	3.08518	2277.36	-1.65552	8.45931	76	150	0
-0.306733	1.54897	6.90731	1.57905	45.7959	2135.14	219.611	658.26	0.562749	3.16021	2295.99	-1.63997	8.33084	76	160	0
-0.321765	1.62492	7.43534	1.65647	39.8623	2135.14	211.075	658.26	0.509647	3.2547	2318.22	-1.58317	8.02301	76	170	0
-0.339054	1.7123	8.07285	1.74554	34.3706	2135.14	202.322	658.26	0.458445	3.35673	2340.8	-1.49423	7.58351	76	180	0
-0.357656	1.80649	8.80313	1.84156	29.6676	2135.14	193.993	658.26	0.412706	3.45921	2362.08	-1.40431	7.13437	76	190	0
-0.376442	1.90163	9.58324	1.93853	25.6851	2135.14	186.166	658.26	0.372328	3.56082	2381.91	-1.3396	6.79751	76	200	0
-0.396405	2.00265	10.4454	2.04151	21.9251	2135.14	177.934	658.26	0.332526	3.67387	2402.59	-1.30073	6.59639	76	210	0
-0.273345	0.659914	0	0.714286	1000	2135.14	530	658.26	5.09176	1.1	1241.53	0	0	77	0	0
-0.273336	0.659891	0.0567894	0.71426	1004.07	2135.14	530.616	658.26	5.10657	1.09672	1238.54	0.0136258	-0.0321654	77	10	0
-0.273398	0.660043	0.118056	0.714425	976.452	2135.14	526.404	658.26	5.00582	1.11912	1258.81	-0.179292	0.434988	77	20	0
-0.273741	0.660873	0.173035	0.715323	920.746	2135.14	517.643	658.26	4.80013	1.16544	1299.96	-0.557191	1.34698	77	30	0
-0.276048	0.666443	0.293378	0.721352	777.554	2135.14	493.237	658.26	4.2542	1.29339	1408.26	-1.65667	4.00233	77	40	0
-0.282851	0.682857	0.460307	0.73912	626.915	2135.14	463.805	658.26	3.64768	1.44786	1528.69	-2.88967	6.99564	77	50	0
-0.293954	0.709653	0.650566	0.768126	523.112	2135.14	440.427	658.26	3.20526	1.57257	1617.98	-3.61869	8.78066	77	60	0
-0.307582	0.742553	0.855724	0.803736	456.385	2135.14	423.586	658.26	2.90759	1.66436	1679.36	-3.80121	9.23042	77	70	0
-0.321352	0.775797	1.065	0.839719	409.387	2135.14	410.636	658.26	2.69042	1.73641	1725.07	-3.59233	8.71773	77	80	0
-0.333311	0.804668	1.26224	0.870969	372.562	2135.14	399.725	658.26	2.51525	1.79831	1762.67	-3.26938	7.92634	77	90	0
-0.341184	0.823672	1.40372	0.891539	347.899	2135.14	391.979	658.26	2.39516	1.84299	1788.88	-3.04814	7.3852	77	100	0
-0.373973	0.902809	2.09148	0.9772	243.52	2135.14	353.997	658.26	1.85643	2.07305	1912.21	-2.47423	5.98675	77	110	0
-0.435725	1.05188	3.6207	1.13855	118.252	2135.14	287.981	658.26	1.10812	2.53552	2109.48	-2.29326	5.54544	77	120	0
-0.512426	1.23698	5.2994	1.33892	70.8648	2135.14	248.787	658.26	0.768682	2.86869	2218.32	-3.0321	7.3448	77	130	0
-0.56733	1.36954	6.27465	1.4824	54.5552	2135.14	230.872	658.26	0.637687	3.04236	2266.32	-3.27516	7.94352	77	140	0
-0.580821	1.40212	6.50811	1.51766	51.0955	2135.14	226.591	658.26	0.608533	3.08631	2277.65	-3.2726	7.93748	77	150	0
-0.603728	1.45744	6.90731	1.57753	45.7387	2135.14	219.533	658.26	0.562248	3.16106	2296.19	-3.22606	7.82282	77	160	0
-0.633264	1.52875	7.43534	1.65472	39.8512	2135.14	211.058	658.26	0.509545	3.25489	2318.26	-3.11279	7.54388	77	170	0
-0.667297	1.6109	8.07285	1.74364	34.3832	2135.14	202.343	658.26	0.458565	3.35647	2340.74	-2.94775	7.13941	77	180	0
-0.704024	1.69955	8.80313	1.8396	29.6762	2135.14	194.009	658.26	0.412791	3.459	2362.04	-2.7745	6.71786	77	190	0
-0.741092	1.78904	9.58324	1.93646	25.6878	2135.14	186.171	658.26	0.372356	3.56074	2381.9	-2.64066	6.39445	77	200	0
-0.780392	1.88396	10.4454	2.0392	21.9316	2135.14	177.949	658.26	0.332597	3.67365	2402.55	-2.55923	6.19797	77	210	0
-0.396836	0.593907	0	0.714286	1000	2135.14	530	658.26	5.09176	1.1	1241.53	0	0	78	0	0
-0.396822	0.593886	0.0567894	0.71426	1004.15	2135.14	530.628	658.26	5.10686	1.09665	1238.48	0.0209902	-0.0291969	78	10	0
-0.396906	0.594023	0.118056	0.714421	976.453	2135.14	526.404	658.26	5.00583	1.11912	1258.81	-0.250824	0.391052	78	20	0
-0.397394	0.594768	0.173035	0.715312	920.529	2135.14	517.608	658.26	4.79932	1.16562	1300.12	-0.798984	1.21094	78	30	0
-0.400723	0.59977	0.293378	0.72132	777.218	2135.14	493.177	658.26	4.25289	1.29371	1408.52	-2.39869	3.59378	78	40	0
-0.410612	0.614513	0.460307	0.739072	627.063	2135.14	463.836	658.26	3.6483	1.44769	1528.57	-4.21084	6.29326	78	50	0
-0.426778	0.638609	0.650566	0.768089	523.563	2135.14	440.536	658.26	3.20724	1.57198	1617.57	-5.26713	7.91033	78	60	0
-0.446568	0.668216	0.855724	0.803701	456.649	2135.14	423.656	658.26	2.90879	1.66397	1679.11	-5.51709	8.32466	78	70	0
-0.466532	0.698167	1.065	0.839696	409.235	2135.14	410.593	658.26	2.68971	1.73666	1725.22	-5.21335	7.86969	78	80	0
-0.483896	0.724195	1.26224	0.870985	372.166	2135.14	399.604	658.26	2.51334	1.799	1763.08	-4.75715	7.15359	78	90	0
-0.495358	0.74132	1.40372	0.891591	347.555	2135.14	391.868	658.26	2.39347	1.84364	1789.25	-4.44527	6.65938	78	100	0
-0.542887	0.812378	2.09148	0.977079	243.486	2135.14	353.983	658.26	1.85624	2.07314	1912.25	-3.5741	5.3621	78	110	0
-0.632814	0.946356	3.6207	1.13844	118.473	2135.14	288.135	658.26	1.1096	2.53432	2109.04	-3.34891	5.02883	78	120	0
-0.744743	1.11353	5.2994	1.33963	70.7113	2135.14	248.633	658.26	0.767492	2.87012	2218.74	-4.43868	6.60317	78	130	0
-0.825237	1.23281	6.27465	1.48352	54.6438	2135.14	230.979	658.26	0.638427	3.04127	2266.04	-4.80354	7.17217	78	140	0
-0.845	1.2622	6.50811	1.51894	51.1812	2135.14	226.699	658.26	0.609261	3.08518	2277.36	-4.79296	7.17098	78	150	0
-0.878489	1.31213	6.90731	1.57906	45.7902	2135.14	219.604	658.26	0.5627	3.16029	2296.01	-4.71305	7.06844	78	160	0
-0.921561	1.37647	7.43534	1.65648	39.8554	2135.14	211.064	658.26	0.509584	3.25481	2318.25	-4.5368	6.80893	78	170	0
-0.971106	1.45047	8.07285	1.74554	34.3687	2135.14	202.319	658.26	0.458426	3.35677	2340.81	-4.29158	6.43284	78	180	0
-1.02456	1.53023	8.80313	1.84156	29.6723	2135.14	194.001	658.26	0.412752	3.4591	2362.06	-4.04076	6.04946	78	190	0