VARIABLES = "X(in)","Y(in)","Z(in)","R(in)","P(psia)","PT(psia)","T(R)","TT(R)","RHO(lbm/ft3)","Mach","Velocity(ft/s)","Theta(deg)","Psi(deg)","I","K","BodyFlag"
TITLE = "Volume Mesh Plot"
text  x=5  y=93  t="Characteristic Mesh Plot" 
zone t="All data" I = 218 J = 1 K = 45
1	0	0	1	1000	2135.14	530	658.26	5.09176	1.1	1241.53	0	0	137	0	1
1.00004	0	0.00895562	1.00004	974.295	2135.14	526.071	658.26	4.99792	1.12088	1260.4	0.504336	0	137	1	1
1.00015	0	0.0174674	1.00015	948.828	2135.14	522.105	658.26	4.90425	1.14189	1279.17	1.01579	0	137	2	1
1.00022	0	0.0210146	1.00022	938.755	2135.14	520.516	658.26	4.86701	1.15028	1286.61	1.21836	0	137	3	1
1.00031	0	0.0249341	1.00031	927.465	2135.14	518.719	658.26	4.82513	1.15976	1294.98	1.45011	0	137	4	1
1.00043	0	0.0292358	1.00043	915.093	2135.14	516.733	658.26	4.77906	1.17023	1304.16	1.70924	0	137	5	1
1.00058	0	0.0339289	1.00058	904.58	2135.14	515.03	658.26	4.73978	1.1792	1311.98	1.92334	0	137	6	1
1.00076	0	0.0390225	1.00076	891.55	2135.14	512.899	658.26	4.69091	1.1904	1321.71	2.20164	0	137	7	1
1.00099	0	0.044525	1.00099	876.111	2135.14	510.345	658.26	4.63275	1.20381	1333.27	2.5451	0	137	8	1
1.00127	0	0.0504447	1.00127	861.034	2135.14	507.82	658.26	4.57566	1.21706	1344.6	2.8816	0	137	9	1
1.00161	0	0.0567894	1.00161	844.614	2135.14	505.035	658.26	4.51316	1.23166	1356.99	3.25829	0	137	10	1
1.00202	0	0.0635667	1.00202	827.227	2135.14	502.042	658.26	4.4466	1.24733	1370.18	3.66644	0	137	11	1
1.00251	0	0.0707841	1.00251	810.338	2135.14	499.092	658.26	4.38157	1.26277	1383.05	4.06312	0	137	12	1
1.00308	0	0.0784487	1.00308	792.94	2135.14	496.006	658.26	4.31416	1.27891	1396.39	4.47884	0	137	13	1
1.00375	0	0.0865677	1.00375	772.965	2135.14	492.404	658.26	4.23625	1.29775	1411.81	4.98178	0	137	14	1
1.00454	0	0.095148	1.00454	754.657	2135.14	489.043	658.26	4.16434	1.31533	1426.04	5.4357	0	137	15	1
1.00496	0	0.0994906	1.00496	745.446	2135.14	487.33	658.26	4.12797	1.32429	1433.24	5.66791	0	137	16	1
1.00544	0	0.104197	1.00544	732.961	2135.14	484.984	658.26	4.07846	1.33657	1443.05	6.0102	0	137	17	1
1.00591	0	0.108536	1.00591	723.093	2135.14	483.11	658.26	4.03917	1.34638	1450.83	6.273	0	137	18	1
1.00649	0	0.113722	1.00649	714.161	2135.14	481.397	658.26	4.00347	1.35535	1457.91	6.49018	0	137	19	1
1.00699	0	0.118056	1.00699	705.055	2135.14	479.635	658.26	3.96694	1.36458	1465.15	6.73434	0	137	20	1
1.00768	0	0.123729	1.00768	691.827	2135.14	477.047	658.26	3.91363	1.37816	1475.73	7.10838	0	137	21	1
1.00823	0	0.128058	1.00823	682.292	2135.14	475.159	658.26	3.87503	1.38807	1483.39	7.37776	0	137	22	1
1.00905	0	0.134226	1.00905	670.773	2135.14	472.853	658.26	3.82818	1.40018	1492.71	7.68978	0	137	23	1
1.00964	0	0.138549	1.00964	662.113	2135.14	471.101	658.26	3.79282	1.4094	1499.74	7.93553	0	137	24	1
1.0106	0	0.145221	1.0106	648.359	2135.14	468.284	658.26	3.73637	1.42423	1510.99	8.33782	0	137	25	1
1.01124	0	0.149537	1.01124	639.678	2135.14	466.483	658.26	3.70057	1.43372	1518.13	8.59455	0	137	26	1
1.01236	0	0.156722	1.01236	625.729	2135.14	463.554	658.26	3.64275	1.44919	1529.68	9.00991	0	137	27	1
1.01305	0	0.16103	1.01305	617.837	2135.14	461.876	658.26	3.60987	1.45806	1536.26	9.24466	0	137	28	1
1.01434	0	0.168736	1.01434	603.731	2135.14	458.838	658.26	3.55081	1.47415	1548.09	9.67259	0	137	29	1
1.01508	0	0.173035	1.01508	591.129	2135.14	456.081	658.26	3.49771	1.48878	1558.76	10.1225	0	137	30	1
1.01519	0	0.173648	1.01519	589.927	2135.14	455.816	658.26	3.49263	1.49019	1559.78	10.1612	0	137	31	1
1.01653	0	0.181237	1.01653	589.375	2135.14	455.694	658.26	3.49029	1.49084	1560.25	10.0129	0	137	32	1
1.0188	0	0.194095	1.0188	583.172	2135.14	454.319	658.26	3.46401	1.49816	1565.54	10.0101	0	137	33	1
1.02113	0	0.207298	1.02113	577.832	2135.14	453.126	658.26	3.44133	1.50451	1570.11	9.98928	0	137	34	1
1.02351	0	0.220837	1.02351	572.403	2135.14	451.906	658.26	3.4182	1.51101	1574.77	9.99381	0	137	35	1
1.02596	0	0.234706	1.02596	567.307	2135.14	450.753	658.26	3.39643	1.51717	1579.17	10.0034	0	137	36	1
1.02846	0	0.248901	1.02846	563.009	2135.14	449.774	658.26	3.37804	1.52239	1582.88	9.99561	0	137	37	1
1.03102	0	0.263415	1.03102	558.58	2135.14	448.76	658.26	3.35903	1.52781	1586.73	10.0119	0	137	38	1
1.03364	0	0.278242	1.03364	555.223	2135.14	447.988	658.26	3.3446	1.53194	1589.65	9.99436	0	137	39	1
1.0363	0	0.293378	1.0363	551.744	2135.14	447.184	658.26	3.32962	1.53625	1592.69	9.9976	0	137	40	1
1.03903	0	0.308816	1.03903	548.408	2135.14	446.41	658.26	3.31523	1.54039	1595.6	10.0063	0	137	41	1
1.0418	0	0.324551	1.0418	545.62	2135.14	445.76	658.26	3.30318	1.54388	1598.05	9.99979	0	137	42	1
1.04463	0	0.340575	1.04463	542.909	2135.14	445.127	658.26	3.29145	1.54728	1600.43	9.99852	0	137	43	1
1.0475	0	0.356883	1.0475	540.293	2135.14	444.513	658.26	3.28011	1.55058	1602.73	9.99985	0	137	44	1
1.05043	0	0.373468	1.05043	537.675	2135.14	443.896	658.26	3.26875	1.55389	1605.04	10.0062	0	137	45	1
1.0534	0	0.390323	1.0534	535.404	2135.14	443.36	658.26	3.25888	1.55677	1607.05	9.99933	0	137	46	1
1.05642	0	0.407441	1.05642	533.089	2135.14	442.811	658.26	3.24881	1.55972	1609.1	9.9968	0	137	47	1
1.05948	0	0.424816	1.05948	530.72	2135.14	442.248	658.26	3.23849	1.56275	1611.2	9.9976	0	137	48	1
1.06259	0	0.442441	1.06259	528.233	2135.14	441.655	658.26	3.22765	1.56595	1613.41	10.0031	0	137	49	1
1.06574	0	0.460307	1.06574	525.949	2135.14	441.108	658.26	3.21767	1.56889	1615.45	9.99673	0	137	50	1
1.06893	0	0.478409	1.06893	523.525	2135.14	440.527	658.26	3.20707	1.57203	1617.61	9.99452	0	137	51	1
1.07216	0	0.496737	1.07216	520.93	2135.14	439.902	658.26	3.19571	1.5754	1619.93	9.99688	0	137	52	1
1.07543	0	0.515284	1.07543	518.165	2135.14	439.233	658.26	3.18358	1.57901	1622.41	10.0029	0	137	53	1
1.07874	0	0.534043	1.07874	515.504	2135.14	438.588	658.26	3.1719	1.5825	1624.8	9.99825	0	137	54	1
1.08208	0	0.553005	1.08208	512.645	2135.14	437.891	658.26	3.15932	1.58627	1627.37	9.99814	0	137	55	1
1.08546	0	0.572161	1.08546	509.585	2135.14	437.143	658.26	3.14584	1.59032	1630.13	10.0021	0	137	56	1
1.08887	0	0.591505	1.08887	506.605	2135.14	436.411	658.26	3.13269	1.59429	1632.83	9.9958	0	137	57	1
1.09231	0	0.611026	1.09231	503.132	2135.14	435.554	658.26	3.11733	1.59893	1635.98	10.0085	0	137	58	1
1.09579	0	0.630716	1.09579	499.721	2135.14	434.708	658.26	3.10222	1.60352	1639.08	10.0113	0	137	59	1
1.09929	0	0.650566	1.09929	496.66	2135.14	433.946	658.26	3.08864	1.60766	1641.87	9.99079	0	137	60	1
1.10281	0	0.670566	1.10281	493.157	2135.14	433.069	658.26	3.07306	1.61243	1645.08	9.98874	0	137	61	1
1.10636	0	0.690708	1.10636	489.205	2135.14	432.075	658.26	3.05545	1.61785	1648.71	10.0049	0	137	62	1
1.10994	0	0.710982	1.10994	485.322	2135.14	431.092	658.26	3.03811	1.6232	1652.28	10.012	0	137	63	1
1.11354	0	0.731378	1.11354	481.79	2135.14	430.194	658.26	3.0223	1.62811	1655.55	9.9969	0	137	64	1
1.11715	0	0.751885	1.11715	478.124	2135.14	429.256	658.26	3.00586	1.63323	1658.95	9.98667	0	137	65	1
1.12078	0	0.772494	1.12078	474.067	2135.14	428.212	658.26	2.98761	1.63895	1662.73	9.995	0	137	66	1
1.12443	0	0.793193	1.12443	469.864	2135.14	427.124	658.26	2.96867	1.64491	1666.65	10.0084	0	137	67	1
1.1281	0	0.813972	1.1281	466.032	2135.14	426.125	658.26	2.95136	1.65039	1670.25	10.0001	0	137	68	1
1.13177	0	0.83482	1.13177	462.088	2135.14	425.092	658.26	2.9335	1.65607	1673.96	9.99734	0	137	69	1
1.13546	0	0.855724	1.13546	458.037	2135.14	424.024	658.26	2.9151	1.66195	1677.79	10.0002	0	137	70	1
1.13915	0	0.876673	1.13915	454.123	2135.14	422.985	658.26	2.89729	1.66767	1681.51	9.99552	0	137	71	1
1.14285	0	0.897654	1.14285	449.872	2135.14	421.85	658.26	2.87789	1.67393	1685.56	10.0099	0	137	72	1
1.14656	0	0.918655	1.14656	445.99	2135.14	420.807	658.26	2.86013	1.6797	1689.27	10.0037	0	137	73	1
1.15026	0	0.939662	1.15026	442.247	2135.14	419.795	658.26	2.84296	1.68531	1692.87	9.99126	0	137	74	1
1.15396	0	0.96066	1.15396	438.186	2135.14	418.69	658.26	2.82429	1.69143	1696.79	9.99827	0	137	75	1
1.15766	0	0.981637	1.15766	434.229	2135.14	417.606	658.26	2.80605	1.69745	1700.62	10.0002	0	137	76	1
1.16135	0	1.00257	1.16135	430.201	2135.14	416.496	658.26	2.78743	1.70363	1704.54	10.0073	0	137	77	1
1.16504	0	1.02346	1.16504	426.276	2135.14	415.407	658.26	2.76924	1.7097	1708.37	10.0095	0	137	78	1
1.16871	0	1.04427	1.16871	422.69	2135.14	414.405	658.26	2.75258	1.71529	1711.89	9.99376	0	137	79	1
1.17236	0	1.065	1.17236	418.746	2135.14	413.296	658.26	2.73421	1.72149	1715.78	10.001	0	137	80	1
1.176	0	1.08561	1.176	414.898	2135.14	412.208	658.26	2.71624	1.72759	1719.59	10.0039	0	137	81	1
1.17961	0	1.1061	1.17961	411.411	2135.14	411.215	658.26	2.69992	1.73316	1723.05	9.98711	0	137	82	1
1.18319	0	1.12644	1.18319	407.491	2135.14	410.092	658.26	2.68152	1.73947	1726.97	9.99849	0	137	83	1
1.18675	0	1.1466	1.18675	403.628	2135.14	408.977	658.26	2.66333	1.74575	1730.84	10.0079	0	137	84	1
1.19027	0	1.16656	1.19027	400.045	2135.14	407.937	658.26	2.64643	1.75162	1734.45	10.0022	0	137	85	1
1.19375	0	1.18629	1.19375	396.501	2135.14	406.901	658.26	2.62966	1.75747	1738.04	9.99704	0	137	86	1
1.19718	0	1.20576	1.19718	392.99	2135.14	405.868	658.26	2.613	1.76332	1741.6	9.99279	0	137	87	1
1.20056	0	1.22494	1.20056	389.194	2135.14	404.744	658.26	2.59495	1.76969	1745.47	10.0091	0	137	88	1
1.20389	0	1.24378	1.20389	385.796	2135.14	403.731	658.26	2.57875	1.77544	1748.96	10.004	0	137	89	1
1.20714	0	1.26224	1.20714	382.55	2135.14	402.758	658.26	2.56323	1.78099	1752.3	9.99388	0	137	90	1
1.21032	0	1.28027	1.21032	379.178	2135.14	401.74	658.26	2.54707	1.78679	1755.79	9.99678	0	137	91	1
1.21341	0	1.29781	1.21341	375.796	2135.14	400.713	658.26	2.53082	1.79265	1759.3	10.0056	0	137	92	1
1.21641	0	1.31479	1.21641	372.8	2135.14	399.798	658.26	2.5164	1.79789	1762.42	9.99622	0	137	93	1
1.21928	0	1.33111	1.21928	369.791	2135.14	398.873	658.26	2.50187	1.80319	1765.57	9.9957	0	137	94	1
1.22203	0	1.34668	1.22203	366.872	2135.14	397.971	658.26	2.48775	1.80837	1768.64	9.99823	0	137	95	1
1.22461	0	1.36134	1.22461	363.973	2135.14	397.07	658.26	2.47369	1.81355	1771.7	10.0102	0	137	96	1
1.22701	0	1.3749	1.22701	361.698	2135.14	396.359	658.26	2.46264	1.81764	1774.11	9.99477	0	137	97	1
1.22915	0	1.38709	1.22915	359.333	2135.14	395.617	658.26	2.45113	1.82192	1776.62	10.002	0	137	98	1
1.23097	0	1.39737	1.23097	357.203	2135.14	394.946	658.26	2.44074	1.8258	1778.89	10.0169	0	137	99	1
1.23209	0	1.40372	1.23209	356.362	2135.14	394.68	658.26	2.43663	1.82734	1779.78	9.99475	0	137	100	1
1.23486	0	1.41947	1.23486	353.625	2135.14	393.811	658.26	2.42325	1.83236	1782.71	9.98404	0	137	101	1
1.24008	0	1.44907	1.24008	347.927	2135.14	391.988	658.26	2.3953	1.84294	1788.85	10.0033	0	137	102	1
1.24907	0	1.50002	1.24907	338.667	2135.14	388.978	658.26	2.34959	1.86048	1798.93	10.0022	0	137	103	1
1.25916	0	1.55726	1.25916	328.357	2135.14	385.557	658.26	2.29827	1.88055	1810.32	9.99851	0	137	104	1
1.27178	0	1.62883	1.27178	315.547	2135.14	381.199	658.26	2.23386	1.90633	1824.73	10.0017	0	137	105	1
1.2853	0	1.70548	1.2853	302.204	2135.14	376.522	658.26	2.16598	1.93425	1840.07	9.99946	0	137	106	1
1.30064	0	1.79252	1.30064	287.581	2135.14	371.224	658.26	2.09058	1.96624	1857.29	9.99765	0	137	107	1
1.31688	0	1.88462	1.31688	272.772	2135.14	365.658	658.26	2.01311	2.00026	1875.21	10.0008	0	137	108	1
1.33463	0	1.98527	1.33463	257.545	2135.14	359.707	658.26	1.93219	2.03714	1894.18	10.0013	0	137	109	1
1.35336	0	2.09148	1.35336	242.586	2135.14	353.609	658.26	1.85134	2.07551	1913.43	9.99906	0	137	110	1
1.37349	0	2.20568	1.37349	227.674	2135.14	347.257	658.26	1.76932	2.11613	1933.27	9.99832	0	137	111	1
1.39476	0	2.32631	1.39476	213.15	2135.14	340.778	658.26	1.68794	2.15828	1953.31	10.0002	0	137	112	1
1.41749	0	2.45521	1.41749	198.939	2135.14	334.126	658.26	1.60677	2.20238	1973.66	10.0017	0	137	113	1
1.44156	0	2.59168	1.44156	185.255	2135.14	327.391	658.26	1.52703	2.24791	1994.06	10	0	137	114	1
1.46724	0	2.73736	1.46724	171.991	2135.14	320.515	658.26	1.4481	2.29538	2014.68	9.99961	0	137	115	1
1.49449	0	2.89187	1.49449	159.265	2135.14	313.553	658.26	1.37074	2.34453	2035.34	10.0008	0	137	116	1
1.5236	0	3.05697	1.5236	147.049	2135.14	306.484	658.26	1.29479	2.3956	2056.1	9.99917	0	137	117	1
1.55457	0	3.23263	1.55457	135.392	2135.14	299.336	658.26	1.22061	2.44853	2076.88	9.99975	0	137	118	1
1.58769	0	3.42045	1.58769	124.279	2135.14	292.101	658.26	1.14818	2.50354	2097.71	10.0004	0	137	119	1
1.623	0	3.6207	1.623	113.783	2135.14	284.829	658.26	1.07805	2.56034	2118.44	10.0005	0	137	120	1
1.66076	0	3.83483	1.66076	103.913	2135.14	277.539	658.26	1.01039	2.61894	2139.02	9.99989	0	137	121	1
1.70102	0	4.06318	1.70102	94.7285	2135.14	270.297	658.26	0.945763	2.67892	2159.27	9.99951	0	137	122	1
1.74397	0	4.30676	1.74397	86.2409	2135.14	263.144	658.26	0.884429	2.74	2179.08	10.0006	0	137	123	1
1.78957	0	4.56534	1.78957	78.5002	2135.14	256.168	658.26	0.82697	2.80147	2198.23	9.99903	0	137	124	1
1.81265	0	4.69626	1.81265	75.067	2135.14	252.916	658.26	0.800971	2.8308	2207.11	9.99805	0	137	125	1
1.83774	0	4.83858	1.83774	71.6025	2135.14	249.524	658.26	0.774389	2.86187	2216.32	10.0011	0	137	126	1
1.8608	0	4.96931	1.8608	68.6997	2135.14	246.591	658.26	0.751832	2.88915	2224.26	10.0002	0	137	127	1
1.88519	0	5.10768	1.88519	65.8739	2135.14	243.649	658.26	0.729611	2.91691	2232.19	10.0025	0	137	128	1
1.89997	0	5.19145	1.89997	64.3187	2135.14	241.992	658.26	0.717265	2.93272	2236.65	10.0023	0	137	129	1
1.919	0	5.2994	1.919	62.4539	2135.14	239.966	658.26	0.702349	2.95223	2242.08	9.99925	0	137	130	1
1.93347	0	5.38146	1.93347	61.1381	2135.14	238.511	658.26	0.691747	2.96638	2245.98	9.99969	0	137	131	1
1.95393	0	5.49751	1.95393	59.407	2135.14	236.561	658.26	0.677699	2.98548	2251.19	9.99924	0	137	132	1
1.96842	0	5.57969	1.96842	58.289	2135.14	235.281	658.26	0.668565	2.99814	2254.61	9.99944	0	137	133	1
1.99066	0	5.70583	1.99066	56.6826	2135.14	233.41	658.26	0.655352	3.01678	2259.59	10.0028	0	137	134	1
2.00537	0	5.78921	2.00537	55.7323	2135.14	232.285	658.26	0.647485	3.02808	2262.58	10.0029	0	137	135	1
2.02974	0	5.92743	2.02974	54.2852	2135.14	230.545	658.26	0.635432	3.04568	2267.19	9.99801	0	137	136	1
2.04481	0	6.01292	2.04481	53.4687	2135.14	229.549	658.26	0.62859	3.05583	2269.83	9.99914	0	137	137	1
2.07174	0	6.16561	2.07174	52.1031	2135.14	227.859	658.26	0.61708	3.07319	2274.3	10.0003	0	137	138	1
2.08734	0	6.25409	2.08734	51.426	2135.14	227.009	658.26	0.611342	3.08197	2276.55	9.98823	0	137	139	1
2.09096	0	6.27465	2.09096	51.181	2135.14	226.699	658.26	0.60926	3.08518	2277.36	10.0137	0	137	140	1
2.09307	0	6.28658	2.09307	51.0726	2135.14	226.562	658.26	0.608337	3.08661	2277.72	10.0185	0	137	141	1
2.09607	0	6.30359	2.09607	51.0099	2135.14	226.482	658.26	0.607804	3.08744	2277.93	9.99777	0	137	142	1
2.09918	0	6.32124	2.09918	50.8954	2135.14	226.337	658.26	0.606829	3.08895	2278.32	9.99167	0	137	143	1
2.10299	0	6.34287	2.10299	50.7103	2135.14	226.101	658.26	0.605252	3.0914	2278.94	9.99804	0	137	144	1
2.10696	0	6.36537	2.10696	50.5224	2135.14	225.862	658.26	0.603649	3.0939	2279.57	10.0036	0	137	145	1
2.11146	0	6.39089	2.11146	50.3584	2135.14	225.652	658.26	0.602249	3.09608	2280.12	9.99537	0	137	146	1
2.11604	0	6.41689	2.11604	50.1598	2135.14	225.397	658.26	0.600552	3.09874	2280.79	9.99711	0	137	147	1
2.12117	0	6.44597	2.12117	49.9388	2135.14	225.113	658.26	0.598661	3.10172	2281.54	9.99918	0	137	148	1
2.1264	0	6.47565	2.1264	49.7125	2135.14	224.821	658.26	0.596721	3.10478	2282.31	10.002	0	137	149	1
2.13213	0	6.50811	2.13213	49.4779	2135.14	224.518	658.26	0.594708	3.10796	2283.11	10.0015	0	137	150	1
2.13787	0	6.54069	2.13787	49.2496	2135.14	224.221	658.26	0.592747	3.11108	2283.89	9.99918	0	137	151	1
2.14415	0	6.57628	2.14415	48.9799	2135.14	223.87	658.26	0.590427	3.11478	2284.82	10.0034	0	137	152	1
2.15045	0	6.61201	2.15045	48.7319	2135.14	223.545	658.26	0.58829	3.1182	2285.67	10.0009	0	137	153	1
2.15724	0	6.65051	2.15724	48.4652	2135.14	223.195	658.26	0.585988	3.12191	2286.59	9.99825	0	137	154	1
2.16406	0	6.68921	2.16406	48.1927	2135.14	222.836	658.26	0.583633	3.12571	2287.53	9.9972	0	137	155	1
2.17139	0	6.73078	2.17139	47.8762	2135.14	222.417	658.26	0.580893	3.13016	2288.63	10.0037	0	137	156	1
2.17866	0	6.77198	2.17866	47.5846	2135.14	222.029	658.26	0.578363	3.13429	2289.65	10.0029	0	137	157	1
2.18647	0	6.81628	2.18647	47.2883	2135.14	221.633	658.26	0.575789	3.13851	2290.69	9.99644	0	137	158	1
2.19418	0	6.86003	2.19418	46.9671	2135.14	221.202	658.26	0.572992	3.14312	2291.82	9.99902	0	137	159	1
2.20252	0	6.90731	2.20252	46.6198	2135.14	220.733	658.26	0.569963	3.14814	2293.05	10.0013	0	137	160	1
2.21066	0	6.95348	2.21066	46.2881	2135.14	220.283	658.26	0.567063	3.15297	2294.23	10.0004	0	137	161	1
2.21948	0	7.00349	2.21948	45.9312	2135.14	219.797	658.26	0.563937	3.15821	2295.5	9.99785	0	137	162	1
2.228	0	7.05184	2.228	45.5803	2135.14	219.315	658.26	0.560856	3.16341	2296.76	9.99643	0	137	163	1
2.23729	0	7.10453	2.23729	45.1807	2135.14	218.764	658.26	0.55734	3.16938	2298.2	9.99944	0	137	164	1
2.24621	0	7.15512	2.24621	44.8021	2135.14	218.239	658.26	0.553999	3.17509	2299.58	9.99934	0	137	165	1
2.25593	0	7.21025	2.25593	44.3712	2135.14	217.637	658.26	0.550189	3.18164	2301.15	10.0039	0	137	166	1
2.26531	0	7.2634	2.26531	43.9686	2135.14	217.071	658.26	0.546617	3.18784	2302.63	10.0025	0	137	167	1
2.27539	0	7.32059	2.27539	43.5308	2135.14	216.452	658.26	0.542725	3.19464	2304.24	10.0009	0	137	168	1
2.28521	0	7.37625	2.28521	43.1019	2135.14	215.84	658.26	0.5389	3.20137	2305.84	9.99869	0	137	169	1
2.29562	0	7.43534	2.29562	42.6434	2135.14	215.182	658.26	0.534799	3.20865	2307.55	9.9958	0	137	170	1
2.30587	0	7.49347	2.30587	42.1621	2135.14	214.485	658.26	0.53048	3.21639	2309.37	10.0019	0	137	171	1
2.3166	0	7.5543	2.3166	41.6692	2135.14	213.765	658.26	0.526043	3.22441	2311.24	10.0026	0	137	172	1
2.32728	0	7.61486	2.32728	41.1852	2135.14	213.053	658.26	0.521672	3.23238	2313.09	9.99927	0	137	173	1
2.33829	0	7.67732	2.33829	40.6716	2135.14	212.29	658.26	0.517016	3.24095	2315.07	9.99963	0	137	174	1
2.34941	0	7.74037	2.34941	40.1485	2135.14	211.507	658.26	0.512258	3.2498	2317.1	10.0003	0	137	175	1
2.36073	0	7.80458	2.36073	39.6194	2135.14	210.707	658.26	0.507427	3.25888	2319.17	9.99842	0	137	176	1
2.37232	0	7.87032	2.37232	39.0629	2135.14	209.857	658.26	0.502326	3.26857	2321.38	10.001	0	137	177	1
2.38399	0	7.93648	2.38399	38.5042	2135.14	208.995	658.26	0.497183	3.27845	2323.61	10.0024	0	137	178	1
2.39607	0	8.00498	2.39607	37.941	2135.14	208.117	658.26	0.491977	3.28857	2325.88	9.99762	0	137	179	1
2.40803	0	8.07285	2.40803	37.3625	2135.14	207.205	658.26	0.486607	3.29913	2328.23	10.0007	0	137	180	1
2.42049	0	8.14346	2.42049	36.771	2135.14	206.263	658.26	0.481093	3.31011	2330.66	10.0001	0	137	181	1
2.43269	0	8.2127	2.43269	36.1962	2135.14	205.336	658.26	0.475708	3.32097	2333.05	9.99808	0	137	182	1
2.44548	0	8.28521	2.44548	35.5803	2135.14	204.332	658.26	0.469913	3.33281	2335.63	10.0027	0	137	183	1
2.45794	0	8.35586	2.45794	34.9989	2135.14	203.372	658.26	0.464415	3.34419	2338.1	10.001	0	137	184	1
2.47102	0	8.43004	2.47102	34.3929	2135.14	202.36	658.26	0.458657	3.35628	2340.7	9.99947	0	137	185	1
2.48373	0	8.50213	2.48373	33.8063	2135.14	201.368	658.26	0.453056	3.36819	2343.25	9.99933	0	137	186	1
2.49706	0	8.57773	2.49706	33.2002	2135.14	200.329	658.26	0.447239	3.38075	2345.91	9.99829	0	137	187	1
2.51003	0	8.65131	2.51003	32.6117	2135.14	199.308	658.26	0.441562	3.39317	2348.52	9.99982	0	137	188	1
2.52356	0	8.72802	2.52356	32.0103	2135.14	198.251	658.26	0.43573	3.40612	2351.22	9.99994	0	137	189	1
2.5368	0	8.80313	2.5368	31.4302	2135.14	197.218	658.26	0.430075	3.41886	2353.86	10.0002	0	137	190	1
2.55047	0	8.88063	2.55047	30.8432	2135.14	196.158	658.26	0.424322	3.43202	2356.57	9.99986	0	137	191	1
2.56397	0	8.95722	2.56397	30.2709	2135.14	195.112	658.26	0.418684	3.44511	2359.23	10.0007	0	137	192	1
2.57772	0	9.03516	2.57772	29.7026	2135.14	194.058	658.26	0.413054	3.45838	2361.92	10.0004	0	137	193	1
2.59145	0	9.11306	2.59145	29.1498	2135.14	193.019	658.26	0.407548	3.47155	2364.56	9.99835	0	137	194	1
2.60521	0	9.19109	2.60521	28.5959	2135.14	191.964	658.26	0.402001	3.48503	2367.24	10.0021	0	137	195	1
2.61909	0	9.26978	2.61909	28.0575	2135.14	190.924	658.26	0.396581	3.49839	2369.88	10.0021	0	137	196	1
2.63282	0	9.34764	2.63282	27.5446	2135.14	189.921	658.26	0.391388	3.51139	2372.42	9.99847	0	137	197	1
2.64645	0	9.42497	2.64645	27.0405	2135.14	188.921	658.26	0.386258	3.52443	2374.95	9.99831	0	137	198	1
2.66028	0	9.5034	2.66028	26.536	2135.14	187.907	658.26	0.381097	3.53774	2377.51	10.001	0	137	199	1
2.67436	0	9.58324	2.67436	26.0411	2135.14	186.899	658.26	0.376006	3.55106	2380.06	10.0006	0	137	200	1
2.68842	0	9.66298	2.68842	25.5652	2135.14	185.917	658.26	0.371085	3.56414	2382.54	9.99731	0	137	201	1
2.70211	0	9.74066	2.70211	25.1042	2135.14	184.953	658.26	0.366293	3.57706	2384.97	9.99915	0	137	202	1
2.7153	0	9.81544	2.7153	24.6721	2135.14	184.037	658.26	0.361779	3.58941	2387.27	10.0007	0	137	203	1
2.72836	0	9.88952	2.72836	24.2583	2135.14	183.15	658.26	0.357434	3.60146	2389.51	10.0002	0	137	204	1
2.74094	0	9.96085	2.74094	23.8711	2135.14	182.31	658.26	0.353349	3.61294	2391.62	9.99899	0	137	205	1
2.75267	0	10.0274	2.75267	23.5133	2135.14	181.525	658.26	0.349558	3.62372	2393.59	10.0007	0	137	206	1
2.76299	0	10.0859	2.76299	23.2023	2135.14	180.836	658.26	0.34625	3.63324	2395.32	10.004	0	137	207	1
2.76964	0	10.1236	2.76964	23.0114	2135.14	180.41	658.26	0.344213	3.63916	2396.39	10.0028	0	137	208	1
2.78745	0	10.2246	2.78745	22.508	2135.14	179.273	658.26	0.338818	3.65502	2399.24	10.0001	0	137	209	1
2.82638	0	10.4454	2.82638	21.4471	2135.14	176.817	658.26	0.327332	3.68974	2405.38	9.99903	0	137	210	1
2.88724	0	10.7906	2.88724	19.9189	2135.14	173.122	658.26	0.310496	3.74319	2414.59	9.9996	0	137	211	1
2.95125	0	11.1536	2.95125	18.4868	2135.14	169.47	658.26	0.294382	3.79751	2423.66	10.0009	0	137	212	1
3.0353	0	11.6302	3.0353	16.8262	2135.14	164.974	658.26	0.275242	3.86658	2434.78	10.0005	0	137	213	1
3.12226	0	12.1234	3.12226	15.3344	2135.14	160.655	658.26	0.257581	3.93532	2445.42	9.99983	0	137	214	1
3.22827	0	12.7246	3.22827	13.7522	2135.14	155.733	658.26	0.238305	4.01674	2457.48	9.99609	0	137	215	1
3.26401	0	12.9274	3.26401	13.1655	2135.14	153.805	658.26	0.230998	4.04958	2462.19	10.0963	0	137	216	1
3.26401	0	12.9274	3.26401	13.1655	2135.14	153.805	658.26	0.230998	4.04958	2462.19	10.0963	0	137	216	1
0.989821	0.142315	0	1	1000	2135.14	530	658.26	5.09176	1.1	1241.53	0	0	138	0	1
0.989862	0.142315	0.00895562	1.00004	974.295	2135.14	526.071	658.26	4.99792	1.12088	1260.4	0.499203	0.0717757	138	1	1
0.989973	0.142315	0.0174674	1.00015	948.829	2135.14	522.105	658.26	4.90426	1.14188	1279.17	1.00545	0.144541	138	2	1
0.990044	0.142315	0.0210146	1.00022	938.758	2135.14	520.516	658.26	4.86702	1.15028	1286.61	1.20597	0.173341	138	3	1
0.990135	0.142315	0.0249341	1.00031	927.471	2135.14	518.72	658.26	4.82515	1.15976	1294.97	1.43536	0.206282	138	4	1
0.990256	0.142315	0.0292358	1.00043	915.102	2135.14	516.734	658.26	4.7791	1.17022	1304.15	1.69186	0.243107	138	5	1
0.990407	0.142315	0.0339289	1.00058	904.594	2135.14	515.032	658.26	4.73983	1.17919	1311.97	1.90381	0.273502	138	6	1
0.990589	0.142314	0.0390225	1.00076	891.571	2135.14	512.902	658.26	4.69099	1.19038	1321.69	2.17929	0.313014	138	7	1
0.990822	0.142313	0.044525	1.00099	876.14	2135.14	510.35	658.26	4.63285	1.20379	1333.24	2.51927	0.361778	138	8	1
0.991105	0.142312	0.0504447	1.00127	861.072	2135.14	507.827	658.26	4.5758	1.21702	1344.57	2.85237	0.409507	138	9	1
0.991449	0.142311	0.0567894	1.00161	844.664	2135.14	505.043	658.26	4.51335	1.23161	1356.95	3.22528	0.462913	138	10	1
0.991863	0.142309	0.0635667	1.00202	827.291	2135.14	502.053	658.26	4.44685	1.24727	1370.13	3.62933	0.520735	138	11	1
0.992358	0.142306	0.0707841	1.00251	810.42	2135.14	499.106	658.26	4.38188	1.26269	1382.99	4.02204	0.576829	138	12	1
0.992935	0.142302	0.0784487	1.00308	793.041	2135.14	496.025	658.26	4.31455	1.27881	1396.32	4.43362	0.635527	138	13	1
0.993612	0.142297	0.0865677	1.00375	773.087	2135.14	492.426	658.26	4.23673	1.29763	1411.72	4.93155	0.706541	138	14	1
0.994411	0.142291	0.095148	1.00454	754.803	2135.14	489.07	658.26	4.16491	1.31518	1425.93	5.38099	0.770373	138	15	1
0.994836	0.142287	0.0994906	1.00496	745.604	2135.14	487.36	658.26	4.12859	1.32413	1433.12	5.61093	0.802968	138	16	1
0.995322	0.142282	0.104197	1.00544	733.129	2135.14	485.016	658.26	4.07913	1.3364	1442.91	5.94983	0.851222	138	17	1
0.995797	0.142277	0.108536	1.00591	723.272	2135.14	483.144	658.26	4.03988	1.3462	1450.69	6.21006	0.888118	138	18	1
0.996384	0.142271	0.113722	1.00649	714.352	2135.14	481.434	658.26	4.00423	1.35516	1457.75	6.42516	0.91829	138	19	1
0.99689	0.142265	0.118056	1.00699	705.256	2135.14	479.674	658.26	3.96774	1.36438	1464.99	6.66695	0.95244	138	20	1
0.997588	0.142257	0.123729	1.00768	692.039	2135.14	477.088	658.26	3.91449	1.37794	1475.56	7.03735	1.0049	138	21	1
0.998145	0.14225	0.128058	1.00823	682.511	2135.14	475.202	658.26	3.87592	1.38784	1483.22	7.30413	1.04258	138	22	1
0.998974	0.14224	0.134226	1.00905	671.003	2135.14	472.899	658.26	3.82912	1.39994	1492.52	7.61318	1.08591	138	23	1
0.999571	0.142232	0.138549	1.00964	662.35	2135.14	471.149	658.26	3.79379	1.40915	1499.55	7.85659	1.12011	138	24	1
1.00054	0.142219	0.145221	1.0106	648.605	2135.14	468.334	658.26	3.73739	1.42396	1510.79	8.25503	1.17614	138	25	1
1.00119	0.14221	0.149537	1.01124	639.929	2135.14	466.536	658.26	3.70161	1.43345	1517.92	8.50933	1.21183	138	26	1
1.00232	0.142194	0.156722	1.01236	625.989	2135.14	463.609	658.26	3.64383	1.4489	1529.46	8.92077	1.26944	138	27	1
1.00302	0.142183	0.16103	1.01305	618.101	2135.14	461.932	658.26	3.61097	1.45776	1536.04	9.15332	1.30186	138	28	1
1.00433	0.142164	0.168736	1.01434	604.002	2135.14	458.897	658.26	3.55195	1.47384	1547.87	9.57728	1.36092	138	29	1
1.00508	0.14215	0.173035	1.01508	591.401	2135.14	456.141	658.26	3.49886	1.48847	1558.53	10.0228	1.42433	138	30	1
1.00519	0.142148	0.173648	1.01519	590.198	2135.14	455.876	658.26	3.49377	1.48987	1559.55	10.0612	1.42969	138	31	1
1.00655	0.142124	0.181237	1.01653	589.656	2135.14	455.756	658.26	3.49148	1.49051	1560.01	9.91481	1.40541	138	32	1
1.00884	0.142086	0.194095	1.0188	583.467	2135.14	454.384	658.26	3.46526	1.49781	1565.29	9.91267	1.40014	138	33	1
1.0112	0.142047	0.207298	1.02113	578.138	2135.14	453.195	658.26	3.44263	1.50414	1569.85	9.89278	1.39213	138	34	1
1.01361	0.142007	0.220837	1.02351	572.716	2135.14	451.976	658.26	3.41953	1.51064	1574.5	9.89798	1.38761	138	35	1
1.01609	0.141967	0.234706	1.02596	567.62	2135.14	450.824	658.26	3.39778	1.51679	1578.9	9.90817	1.38368	138	36	1
1.01862	0.141926	0.248901	1.02846	563.316	2135.14	449.844	658.26	3.37935	1.52202	1582.62	9.90125	1.3772	138	37	1
1.02121	0.141884	0.263415	1.03102	558.872	2135.14	448.827	658.26	3.36029	1.52745	1586.47	9.91813	1.37409	138	38	1
1.02386	0.141841	0.278242	1.03364	555.493	2135.14	448.05	658.26	3.34576	1.53161	1589.42	9.90149	1.3662	138	39	1
1.02655	0.141797	0.293378	1.0363	551.983	2135.14	447.24	658.26	3.33065	1.53595	1592.48	9.90543	1.36134	138	40	1
1.02931	0.141753	0.308816	1.03903	548.607	2135.14	446.456	658.26	3.31609	1.54015	1595.43	9.91479	1.35737	138	41	1
1.03212	0.141707	0.324551	1.0418	545.771	2135.14	445.796	658.26	3.30383	1.54369	1597.92	9.90899	1.35146	138	42	1
1.03498	0.141662	0.340575	1.04463	543.006	2135.14	445.149	658.26	3.29187	1.54716	1600.35	9.90837	1.34654	138	43	1
1.03788	0.141615	0.356883	1.0475	540.328	2135.14	444.521	658.26	3.28026	1.55053	1602.7	9.91029	1.34231	138	44	1
1.04085	0.141568	0.373468	1.05043	537.644	2135.14	443.889	658.26	3.26862	1.55393	1605.07	9.9171	1.33914	138	45	1
1.04385	0.14152	0.390323	1.0534	535.302	2135.14	443.336	658.26	3.25844	1.5569	1607.14	9.9108	1.33455	138	46	1
1.0469	0.141472	0.407441	1.05642	532.915	2135.14	442.77	658.26	3.24806	1.55995	1609.25	9.90871	1.33101	138	47	1
1.05	0.141422	0.424816	1.05948	530.472	2135.14	442.189	658.26	3.23741	1.56307	1611.42	9.90986	1.32841	138	48	1
1.05314	0.141373	0.442441	1.06259	527.913	2135.14	441.579	658.26	3.22625	1.56636	1613.7	9.91564	1.32695	138	49	1
1.05633	0.141322	0.460307	1.06574	525.558	2135.14	441.015	658.26	3.21596	1.5694	1615.79	9.90952	1.32433	138	50	1
1.05955	0.141271	0.478409	1.06893	523.068	2135.14	440.417	658.26	3.20507	1.57262	1618.02	9.90749	1.32277	138	51	1
1.06282	0.141219	0.496737	1.07216	520.415	2135.14	439.777	658.26	3.19345	1.57608	1620.39	9.90993	1.32226	138	52	1
1.06612	0.141167	0.515284	1.07543	517.598	2135.14	439.096	658.26	3.18109	1.57976	1622.91	9.91592	1.32264	138	53	1
1.06947	0.141114	0.534043	1.07874	514.895	2135.14	438.439	658.26	3.16922	1.5833	1625.34	9.91136	1.32192	138	54	1
1.07285	0.14106	0.553005	1.08208	512.004	2135.14	437.735	658.26	3.1565	1.58712	1627.95	9.91123	1.32208	138	55	1
1.07626	0.141006	0.572161	1.08546	508.924	2135.14	436.981	658.26	3.14292	1.5912	1630.73	9.91508	1.32296	138	56	1
1.07971	0.14095	0.591505	1.08887	505.935	2135.14	436.246	658.26	3.12973	1.59518	1633.43	9.90881	1.32258	138	57	1
1.08319	0.140895	0.611026	1.09231	502.467	2135.14	435.39	658.26	3.11439	1.59982	1636.58	9.92134	1.32471	138	58	1
1.0867	0.140839	0.630716	1.09579	499.073	2135.14	434.547	658.26	3.09935	1.6044	1639.67	9.92414	1.32543	138	59	1
1.09024	0.140782	0.650566	1.09929	496.04	2135.14	433.791	658.26	3.08589	1.60851	1642.44	9.90376	1.32286	138	60	1
1.09379	0.140725	0.670566	1.10281	492.578	2135.14	432.924	658.26	3.07049	1.61322	1645.61	9.90175	1.32245	138	61	1
1.09738	0.140667	0.690708	1.10636	488.676	2135.14	431.941	658.26	3.05309	1.61857	1649.19	9.91784	1.32402	138	62	1
1.101	0.140609	0.710982	1.10994	484.854	2135.14	430.973	658.26	3.03602	1.62385	1652.71	9.92506	1.32393	138	63	1
1.10463	0.140551	0.731378	1.11354	481.39	2135.14	430.091	658.26	3.02051	1.62867	1655.92	9.9103	1.32041	138	64	1
1.10828	0.140492	0.751885	1.11715	477.798	2135.14	429.172	658.26	3.00439	1.63369	1659.25	9.90045	1.31693	138	65	1