VARIABLES = "X/R","Y/R","Z/R","R/R","Mach","Pres","Temp","Rho","Theta", "Gamma", "Massflow""J"
TITLE = "Streamline Data file"
text  x=5  y=93   t="Streamline Data"
zone t="MassFlow % = 0" I = 37 J = 1 K = 1
0.724356	0.0	0.0	0	1.5	14.9822	365.518	0.00343871	0	1.4	0	0
0.690938	0.0	0.0	0	1.47459	15.5419	369.368	0.00352999	0	1.4	0	3
0.721658	0.0	0.0	0	1.47109	15.6203	369.899	0.00354269	0	1.4	0	6
0.782665	0.0	0.0	0	1.4683	15.6832	370.324	0.00355287	0	1.4	0	9
0.87622	0.0	0.0	0	1.46586	15.7382	370.695	0.00356177	0	1.4	0	12
1.01674	0.0	0.0	0	1.58896	13.1531	352.17	0.00313332	0	1.4	0	15
1.17917	0.0	0.0	0	1.72677	10.7008	332.008	0.00270394	0	1.4	0	18
1.29871	0.0	0.0	0	1.83002	9.14207	317.405	0.00241634	0	1.4	0	21
1.43026	0.0	0.0	0	1.93386	7.78931	303.21	0.00215518	0	1.4	0	24
1.61168	0.0	0.0	0	2.07678	6.23653	284.548	0.00183872	0	1.4	0	27
1.74637	0.0	0.0	0	2.17896	5.31588	271.855	0.00164046	0	1.4	0	30
1.90216	0.0	0.0	0	2.29536	4.43052	258.066	0.0014403	0	1.4	0	33
2.0844	0.0	0.0	0	2.42701	3.60668	243.334	0.00124346	0	1.4	0	36
2.30049	0.0	0.0	0	2.57816	2.85116	227.528	0.00105127	0	1.4	0	39
2.48335	0.0	0.0	0	2.70135	2.35736	215.495	0.000917735	0	1.4	0	42
2.69586	0.0	0.0	0	2.84004	1.90668	202.819	0.000788671	0	1.4	0	45
2.95664	0.0	0.0	0	3.00313	1.4903	189.032	0.0006614	0	1.4	0	48
3.28219	0.0	0.0	0	3.19751	1.11661	174.067	0.000538164	0	1.4	0	51
3.55848	0.0	0.0	0	3.35399	0.888876	163.084	0.000457253	0	1.4	0	54
3.8308	0.0	0.0	0	3.5	0.721101	153.623	0.000393792	0	1.4	0	57
4.35313	0.0	0.0	0	3.5	0.721101	153.623	0.000393792	0	1.4	0	60
4.87546	0.0	0.0	0	3.5	0.721101	153.623	0.000393792	0	1.4	0	63
5.39779	0.0	0.0	0	3.5	0.721101	153.623	0.000393792	0	1.4	0	66
5.92012	0.0	0.0	0	3.5	0.721101	153.623	0.000393792	0	1.4	0	69
6.44245	0.0	0.0	0	3.5	0.721101	153.623	0.000393792	0	1.4	0	72
6.96478	0.0	0.0	0	3.5	0.721101	153.623	0.000393792	0	1.4	0	75
7.48711	0.0	0.0	0	3.5	0.721101	153.623	0.000393792	0	1.4	0	78
8.00944	0.0	0.0	0	3.5	0.721101	153.623	0.000393792	0	1.4	0	81
8.53177	0.0	0.0	0	3.5	0.721101	153.623	0.000393792	0	1.4	0	84
9.0541	0.0	0.0	0	3.5	0.721101	153.623	0.000393792	0	1.4	0	87
9.57643	0.0	0.0	0	3.5	0.721101	153.623	0.000393792	0	1.4	0	90
10.0988	0.0	0.0	0	3.5	0.721101	153.623	0.000393792	0	1.4	0	93
10.6211	0.0	0.0	0	3.5	0.721101	153.623	0.000393792	0	1.4	0	96
11.1434	0.0	0.0	0	3.5	0.721101	153.623	0.000393792	0	1.4	0	99
11.6657	0.0	0.0	0	3.5	0.721101	153.623	0.000393792	0	1.4	0	102
12.1881	0.0	0.0	0	3.5	0.721101	153.623	0.000393792	0	1.4	0	105
12.5363	0.0	0.0	0	3.5	0.721101	153.623	0.000393792	0	1.4	0	107
zone t="MassFlow % = 10" I = 42 J = 1 K = 37 
0.659853	0	0.338011	0.338011	1.49715	15.0442	365.949	0.00344887	3.91665	1.4	0.393017	0
0.407303	0	0.323532	0.323532	1.23848	21.5611	405.581	0.00445984	0.186361	1.4	0.393017	3
0.437167	0	0.323518	0.323518	1.25587	21.0676	402.907	0.00438669	0.375134	1.4	0.393017	6
0.486003	0	0.324298	0.324298	1.28223	20.3343	398.85	0.00427709	0.822069	1.4	0.393017	9
0.554707	0	0.326109	0.326109	1.32359	19.2208	392.483	0.00410844	1.47044	1.4	0.393017	12
0.646824	0	0.329308	0.329308	1.38512	17.6484	383.028	0.00386547	2.32877	1.4	0.393017	15
0.746171	0	0.334129	0.334129	1.45708	15.9376	372.03	0.00359394	3.21221	1.4	0.393017	18
0.817951	0	0.338558	0.338558	1.51123	14.7402	363.821	0.00339894	3.82304	1.4	0.393017	21
0.895434	0	0.34415	0.34415	1.57156	13.4952	354.762	0.00319131	4.43896	1.4	0.393017	24
0.999323	0	0.352941	0.352941	1.65433	11.9341	342.518	0.00292303	5.19595	1.4	0.393017	27
1.0742	0	0.360095	0.360095	1.71621	10.8733	333.528	0.00273499	5.65437	1.4	0.393017	30
1.15853	0	0.36883	0.36883	1.78188	9.84092	324.155	0.00254688	6.25045	1.4	0.393017	33
1.25367	0	0.379819	0.379819	1.85394	8.81238	314.089	0.00235376	6.94938	1.4	0.393017	36
1.36191	0	0.393595	0.393595	1.93953	7.72202	302.452	0.00214181	7.58253	1.4	0.393017	39
1.45014	0	0.405507	0.405507	2.01465	6.87268	292.539	0.0019707	7.88733	1.4	0.393017	42
1.54915	0	0.419439	0.419439	2.0985	6.03055	281.811	0.001795	8.17194	1.4	0.393017	45
1.66552	0	0.436659	0.436659	2.19233	5.20681	270.239	0.00161629	8.55136	1.4	0.393017	48
1.80376	0	0.458097	0.458097	2.30152	4.38812	257.357	0.00143043	8.95184	1.4	0.393017	51
1.91593	0	0.476005	0.476005	2.38743	3.83705	247.67	0.00129965	9.25823	1.4	0.393017	54
2.02185	0	0.493515	0.493515	2.46681	3.39027	239.062	0.00118966	9.52827	1.4	0.393017	57
2.31464	0	0.542108	0.542108	2.63257	2.62129	222.123	0.000989981	9.17104	1.4	0.393017	60
2.6658	0	0.595844	0.595844	2.78757	2.06601	207.513	0.000835162	8.2143	1.4	0.393017	63
3.04856	0	0.647267	0.647267	2.92551	1.67503	195.449	0.00071897	7.0429	1.4	0.393017	66
3.45693	0	0.693221	0.693221	3.04777	1.39406	185.46	0.000630599	5.80924	1.4	0.393017	69
3.88833	0	0.732098	0.732098	3.15581	1.18781	177.156	0.000562417	4.59287	1.4	0.393017	72
4.33856	0	0.763928	0.763928	3.24996	1.03406	170.285	0.000509424	3.44907	1.4	0.393017	75
4.80839	0	0.787825	0.787825	3.33122	0.91872	164.628	0.00046816	2.40089	1.4	0.393017	78
5.2955	0	0.804183	0.804183	3.39921	0.832853	160.077	0.000436471	1.4775	1.4	0.393017	81
5.79748	0	0.813735	0.813735	3.45314	0.770875	156.581	0.00041302	0.708587	1.4	0.393017	84
6.31233	0	0.817322	0.817322	3.49063	0.730776	154.209	0.000397558	0.146192	1.4	0.393017	87
6.83417	0	0.817584	0.817584	3.5	0.721101	153.623	0.000393792	0	1.4	0.393017	90
7.3565	0	0.817584	0.817584	3.5	0.721101	153.623	0.000393792	0	1.4	0.393017	93
7.87883	0	0.817584	0.817584	3.5	0.721101	153.623	0.000393792	0	1.4	0.393017	96
8.40116	0	0.817584	0.817584	3.5	0.721101	153.623	0.000393792	0	1.4	0.393017	99
8.92349	0	0.817584	0.817584	3.5	0.721101	153.623	0.000393792	0	1.4	0.393017	102
9.44582	0	0.817584	0.817584	3.5	0.721101	153.623	0.000393792	0	1.4	0.393017	105
9.96815	0	0.817584	0.817584	3.5	0.721101	153.623	0.000393792	0	1.4	0.393017	108
10.4905	0	0.817584	0.817584	3.5	0.721101	153.623	0.000393792	0	1.4	0.393017	111
11.0128	0	0.817584	0.817584	3.5	0.721101	153.623	0.000393792	0	1.4	0.393017	114
11.5351	0	0.817584	0.817584	3.5	0.721101	153.623	0.000393792	0	1.4	0.393017	117
12.0575	0	0.817584	0.817584	3.5	0.721101	153.623	0.000393792	0	1.4	0.393017	120
12.5363	0	0.817375	0.817375	3.5	0.721101	153.623	0.000393792	0	1.4	0.393017	158
0.659853	0.0586951	0.332876	0.338011	1.49715	15.0442	365.949	0.00344887	3.91665	1.4	0.393017	0
0.407303	0.0561807	0.318616	0.323532	1.23848	21.5611	405.581	0.00445984	0.186361	1.4	0.393017	3
0.437167	0.0561783	0.318603	0.323518	1.25587	21.0676	402.907	0.00438669	0.375134	1.4	0.393017	6
0.486003	0.0563137	0.319371	0.324298	1.28223	20.3343	398.85	0.00427709	0.822069	1.4	0.393017	9
0.554707	0.0566283	0.321155	0.326109	1.32359	19.2208	392.483	0.00410844	1.47044	1.4	0.393017	12
0.646824	0.0571837	0.324305	0.329308	1.38512	17.6484	383.028	0.00386547	2.32877	1.4	0.393017	15
0.746171	0.0580209	0.329053	0.334129	1.45708	15.9376	372.03	0.00359394	3.21221	1.4	0.393017	18
0.817951	0.05879	0.333414	0.338558	1.51123	14.7402	363.821	0.00339894	3.82304	1.4	0.393017	21
0.895434	0.059761	0.338921	0.34415	1.57156	13.4952	354.762	0.00319131	4.43896	1.4	0.393017	24
0.999323	0.0612876	0.347579	0.352941	1.65433	11.9341	342.518	0.00292303	5.19595	1.4	0.393017	27
1.0742	0.0625298	0.354624	0.360095	1.71621	10.8733	333.528	0.00273499	5.65437	1.4	0.393017	30
1.15853	0.0640466	0.363226	0.36883	1.78188	9.84092	324.155	0.00254688	6.25045	1.4	0.393017	33
1.25367	0.0659549	0.374049	0.379819	1.85394	8.81238	314.089	0.00235376	6.94938	1.4	0.393017	36
1.36191	0.0683471	0.387616	0.393595	1.93953	7.72202	302.452	0.00214181	7.58253	1.4	0.393017	39
1.45014	0.0704156	0.399347	0.405507	2.01465	6.87268	292.539	0.0019707	7.88733	1.4	0.393017	42
1.54915	0.0728349	0.413067	0.419439	2.0985	6.03055	281.811	0.001795	8.17194	1.4	0.393017	45
1.66552	0.075825	0.430025	0.436659	2.19233	5.20681	270.239	0.00161629	8.55136	1.4	0.393017	48
1.80376	0.0795477	0.451137	0.458097	2.30152	4.38812	257.357	0.00143043	8.95184	1.4	0.393017	51
1.91593	0.0826574	0.468774	0.476005	2.38743	3.83705	247.67	0.00129965	9.25823	1.4	0.393017	54
2.02185	0.085698	0.486018	0.493515	2.46681	3.39027	239.062	0.00118966	9.52827	1.4	0.393017	57
2.31464	0.0941361	0.533872	0.542108	2.63257	2.62129	222.123	0.000989981	9.17104	1.4	0.393017	60
2.6658	0.103467	0.586791	0.595844	2.78757	2.06601	207.513	0.000835162	8.2143	1.4	0.393017	63
3.04856	0.112397	0.637433	0.647267	2.92551	1.67503	195.449	0.00071897	7.0429	1.4	0.393017	66
3.45693	0.120377	0.68269	0.693221	3.04777	1.39406	185.46	0.000630599	5.80924	1.4	0.393017	69
3.88833	0.127127	0.720975	0.732098	3.15581	1.18781	177.156	0.000562417	4.59287	1.4	0.393017	72
4.33856	0.132655	0.752322	0.763928	3.24996	1.03406	170.285	0.000509424	3.44907	1.4	0.393017	75
4.80839	0.136804	0.775856	0.787825	3.33122	0.91872	164.628	0.00046816	2.40089	1.4	0.393017	78
5.2955	0.139645	0.791965	0.804183	3.39921	0.832853	160.077	0.000436471	1.4775	1.4	0.393017	81
5.79748	0.141304	0.801372	0.813735	3.45314	0.770875	156.581	0.00041302	0.708587	1.4	0.393017	84
6.31233	0.141926	0.804905	0.817322	3.49063	0.730776	154.209	0.000397558	0.146192	1.4	0.393017	87
6.83417	0.141972	0.805163	0.817584	3.5	0.721101	153.623	0.000393792	0	1.4	0.393017	90
7.3565	0.141972	0.805163	0.817584	3.5	0.721101	153.623	0.000393792	0	1.4	0.393017	93
7.87883	0.141972	0.805163	0.817584	3.5	0.721101	153.623	0.000393792	0	1.4	0.393017	96
8.40116	0.141972	0.805163	0.817584	3.5	0.721101	153.623	0.000393792	0	1.4	0.393017	99
8.92349	0.141972	0.805163	0.817584	3.5	0.721101	153.623	0.000393792	0	1.4	0.393017	102
9.44582	0.141972	0.805163	0.817584	3.5	0.721101	153.623	0.000393792	0	1.4	0.393017	105
9.96815	0.141972	0.805163	0.817584	3.5	0.721101	153.623	0.000393792	0	1.4	0.393017	108
10.4905	0.141972	0.805163	0.817584	3.5	0.721101	153.623	0.000393792	0	1.4	0.393017	111
11.0128	0.141972	0.805163	0.817584	3.5	0.721101	153.623	0.000393792	0	1.4	0.393017	114
11.5351	0.141972	0.805163	0.817584	3.5	0.721101	153.623	0.000393792	0	1.4	0.393017	117
12.0575	0.141972	0.805163	0.817584	3.5	0.721101	153.623	0.000393792	0	1.4	0.393017	120
12.5363	0.141936	0.804957	0.817375	3.5	0.721101	153.623	0.000393792	0	1.4	0.393017	158
0.659853	0.115607	0.317627	0.338011	1.49715	15.0442	365.949	0.00344887	3.91665	1.4	0.393017	0
0.407303	0.110654	0.30402	0.323532	1.23848	21.5611	405.581	0.00445984	0.186361	1.4	0.393017	3
0.437167	0.11065	0.304008	0.323518	1.25587	21.0676	402.907	0.00438669	0.375134	1.4	0.393017	6
0.486003	0.110916	0.30474	0.324298	1.28223	20.3343	398.85	0.00427709	0.822069	1.4	0.393017	9
0.554707	0.111536	0.306443	0.326109	1.32359	19.2208	392.483	0.00410844	1.47044	1.4	0.393017	12
0.646824	0.11263	0.309448	0.329308	1.38512	17.6484	383.028	0.00386547	2.32877	1.4	0.393017	15
0.746171	0.114279	0.313978	0.334129	1.45708	15.9376	372.03	0.00359394	3.21221	1.4	0.393017	18
0.817951	0.115794	0.31814	0.338558	1.51123	14.7402	363.821	0.00339894	3.82304	1.4	0.393017	21
0.895434	0.117706	0.323395	0.34415	1.57156	13.4952	354.762	0.00319131	4.43896	1.4	0.393017	24
0.999323	0.120713	0.331656	0.352941	1.65433	11.9341	342.518	0.00292303	5.19595	1.4	0.393017	27
1.0742	0.12316	0.338379	0.360095	1.71621	10.8733	333.528	0.00273499	5.65437	1.4	0.393017	30
1.15853	0.126147	0.346586	0.36883	1.78188	9.84092	324.155	0.00254688	6.25045	1.4	0.393017	33
1.25367	0.129906	0.356913	0.379819	1.85394	8.81238	314.089	0.00235376	6.94938	1.4	0.393017	36
1.36191	0.134617	0.369859	0.393595	1.93953	7.72202	302.452	0.00214181	7.58253	1.4	0.393017	39
1.45014	0.138692	0.381052	0.405507	2.01465	6.87268	292.539	0.0019707	7.88733	1.4	0.393017	42
1.54915	0.143457	0.394144	0.419439	2.0985	6.03055	281.811	0.001795	8.17194	1.4	0.393017	45
1.66552	0.149346	0.410325	0.436659	2.19233	5.20681	270.239	0.00161629	8.55136	1.4	0.393017	48
1.80376	0.156678	0.43047	0.458097	2.30152	4.38812	257.357	0.00143043	8.95184	1.4	0.393017	51
1.91593	0.162803	0.447298	0.476005	2.38743	3.83705	247.67	0.00129965	9.25823	1.4	0.393017	54
2.02185	0.168792	0.463753	0.493515	2.46681	3.39027	239.062	0.00118966	9.52827	1.4	0.393017	57
2.31464	0.185412	0.509415	0.542108	2.63257	2.62129	222.123	0.000989981	9.17104	1.4	0.393017	60
2.6658	0.203791	0.55991	0.595844	2.78757	2.06601	207.513	0.000835162	8.2143	1.4	0.393017	63
3.04856	0.221378	0.608232	0.647267	2.92551	1.67503	195.449	0.00071897	7.0429	1.4	0.393017	66
3.45693	0.237096	0.651415	0.693221	3.04777	1.39406	185.46	0.000630599	5.80924	1.4	0.393017	69
3.88833	0.250392	0.687947	0.732098	3.15581	1.18781	177.156	0.000562417	4.59287	1.4	0.393017	72
4.33856	0.261279	0.717857	0.763928	3.24996	1.03406	170.285	0.000509424	3.44907	1.4	0.393017	75
4.80839	0.269452	0.740313	0.787825	3.33122	0.91872	164.628	0.00046816	2.40089	1.4	0.393017	78
5.2955	0.275047	0.755685	0.804183	3.39921	0.832853	160.077	0.000436471	1.4775	1.4	0.393017	81
5.79748	0.278314	0.76466	0.813735	3.45314	0.770875	156.581	0.00041302	0.708587	1.4	0.393017	84
6.31233	0.279541	0.768031	0.817322	3.49063	0.730776	154.209	0.000397558	0.146192	1.4	0.393017	87
6.83417	0.27963	0.768277	0.817584	3.5	0.721101	153.623	0.000393792	0	1.4	0.393017	90
7.3565	0.27963	0.768277	0.817584	3.5	0.721101	153.623	0.000393792	0	1.4	0.393017	93
7.87883	0.27963	0.768277	0.817584	3.5	0.721101	153.623	0.000393792	0	1.4	0.393017	96
8.40116	0.27963	0.768277	0.817584	3.5	0.721101	153.623	0.000393792	0	1.4	0.393017	99
8.92349	0.27963	0.768277	0.817584	3.5	0.721101	153.623	0.000393792	0	1.4	0.393017	102
9.44582	0.27963	0.768277	0.817584	3.5	0.721101	153.623	0.000393792	0	1.4	0.393017	105
9.96815	0.27963	0.768277	0.817584	3.5	0.721101	153.623	0.000393792	0	1.4	0.393017	108
10.4905	0.27963	0.768277	0.817584	3.5	0.721101	153.623	0.000393792	0	1.4	0.393017	111
11.0128	0.27963	0.768277	0.817584	3.5	0.721101	153.623	0.000393792	0	1.4	0.393017	114
11.5351	0.27963	0.768277	0.817584	3.5	0.721101	153.623	0.000393792	0	1.4	0.393017	117
12.0575	0.27963	0.768277	0.817584	3.5	0.721101	153.623	0.000393792	0	1.4	0.393017	120
12.5363	0.279559	0.768081	0.817375	3.5	0.721101	153.623	0.000393792	0	1.4	0.393017	158
0.659853	0.169006	0.292726	0.338011	1.49715	15.0442	365.949	0.00344887	3.91665	1.4	0.393017	0
0.407303	0.161766	0.280187	0.323532	1.23848	21.5611	405.581	0.00445984	0.186361	1.4	0.393017	3
0.437167	0.161759	0.280175	0.323518	1.25587	21.0676	402.907	0.00438669	0.375134	1.4	0.393017	6
0.486003	0.162149	0.28085	0.324298	1.28223	20.3343	398.85	0.00427709	0.822069	1.4	0.393017	9
0.554707	0.163055	0.282419	0.326109	1.32359	19.2208	392.483	0.00410844	1.47044	1.4	0.393017	12
0.646824	0.164654	0.285189	0.329308	1.38512	17.6484	383.028	0.00386547	2.32877	1.4	0.393017	15
0.746171	0.167064	0.289364	0.334129	1.45708	15.9376	372.03	0.00359394	3.21221	1.4	0.393017	18
0.817951	0.169279	0.2932	0.338558	1.51123	14.7402	363.821	0.00339894	3.82304	1.4	0.393017	21
0.895434	0.172075	0.298042	0.34415	1.57156	13.4952	354.762	0.00319131	4.43896	1.4	0.393017	24
0.999323	0.176471	0.305656	0.352941	1.65433	11.9341	342.518	0.00292303	5.19595	1.4	0.393017	27
1.0742	0.180047	0.311851	0.360095	1.71621	10.8733	333.528	0.00273499	5.65437	1.4	0.393017	30
1.15853	0.184415	0.319416	0.36883	1.78188	9.84092	324.155	0.00254688	6.25045	1.4	0.393017	33
1.25367	0.18991	0.328933	0.379819	1.85394	8.81238	314.089	0.00235376	6.94938	1.4	0.393017	36
1.36191	0.196798	0.340863	0.393595	1.93953	7.72202	302.452	0.00214181	7.58253	1.4	0.393017	39
1.45014	0.202754	0.35118	0.405507	2.01465	6.87268	292.539	0.0019707	7.88733	1.4	0.393017	42
1.54915	0.20972	0.363245	0.419439	2.0985	6.03055	281.811	0.001795	8.17194	1.4	0.393017	45
1.66552	0.218329	0.378157	0.436659	2.19233	5.20681	270.239	0.00161629	8.55136	1.4	0.393017	48
1.80376	0.229048	0.396723	0.458097	2.30152	4.38812	257.357	0.00143043	8.95184	1.4	0.393017	51
1.91593	0.238003	0.412233	0.476005	2.38743	3.83705	247.67	0.00129965	9.25823	1.4	0.393017	54
2.02185	0.246758	0.427397	0.493515	2.46681	3.39027	239.062	0.00118966	9.52827	1.4	0.393017	57
2.31464	0.271054	0.469479	0.542108	2.63257	2.62129	222.123	0.000989981	9.17104	1.4	0.393017	60
2.6658	0.297922	0.516016	0.595844	2.78757	2.06601	207.513	0.000835162	8.2143	1.4	0.393017	63
3.04856	0.323633	0.56055	0.647267	2.92551	1.67503	195.449	0.00071897	7.0429	1.4	0.393017	66
3.45693	0.346611	0.600347	0.693221	3.04777	1.39406	185.46	0.000630599	5.80924	1.4	0.393017	69
3.88833	0.366049	0.634015	0.732098	3.15581	1.18781	177.156	0.000562417	4.59287	1.4	0.393017	72
4.33856	0.381964	0.661581	0.763928	3.24996	1.03406	170.285	0.000509424	3.44907	1.4	0.393017	75
4.80839	0.393912	0.682276	0.787825	3.33122	0.91872	164.628	0.00046816	2.40089	1.4	0.393017	78
5.2955	0.402091	0.696443	0.804183	3.39921	0.832853	160.077	0.000436471	1.4775	1.4	0.393017	81
5.79748	0.406867	0.704715	0.813735	3.45314	0.770875	156.581	0.00041302	0.708587	1.4	0.393017	84
6.31233	0.408661	0.707821	0.817322	3.49063	0.730776	154.209	0.000397558	0.146192	1.4	0.393017	87
6.83417	0.408792	0.708048	0.817584	3.5	0.721101	153.623	0.000393792	0	1.4	0.393017	90
7.3565	0.408792	0.708048	0.817584	3.5	0.721101	153.623	0.000393792	0	1.4	0.393017	93
7.87883	0.408792	0.708048	0.817584	3.5	0.721101	153.623	0.000393792	0	1.4	0.393017	96
8.40116	0.408792	0.708048	0.817584	3.5	0.721101	153.623	0.000393792	0	1.4	0.393017	99
8.92349	0.408792	0.708048	0.817584	3.5	0.721101	153.623	0.000393792	0	1.4	0.393017	102
9.44582	0.408792	0.708048	0.817584	3.5	0.721101	153.623	0.000393792	0	1.4	0.393017	105
9.96815	0.408792	0.708048	0.817584	3.5	0.721101	153.623	0.000393792	0	1.4	0.393017	108
10.4905	0.408792	0.708048	0.817584	3.5	0.721101	153.623	0.000393792	0	1.4	0.393017	111
11.0128	0.408792	0.708048	0.817584	3.5	0.721101	153.623	0.000393792	0	1.4	0.393017	114
11.5351	0.408792	0.708048	0.817584	3.5	0.721101	153.623	0.000393792	0	1.4	0.393017	117
12.0575	0.408792	0.708048	0.817584	3.5	0.721101	153.623	0.000393792	0	1.4	0.393017	120
12.5363	0.408687	0.707867	0.817375	3.5	0.721101	153.623	0.000393792	0	1.4	0.393017	158
0.659853	0.21727	0.258932	0.338011	1.49715	15.0442	365.949	0.00344887	3.91665	1.4	0.393017	0
0.407303	0.207962	0.24784	0.323532	1.23848	21.5611	405.581	0.00445984	0.186361	1.4	0.393017	3
0.437167	0.207953	0.247829	0.323518	1.25587	21.0676	402.907	0.00438669	0.375134	1.4	0.393017	6
0.486003	0.208455	0.248426	0.324298	1.28223	20.3343	398.85	0.00427709	0.822069	1.4	0.393017	9
0.554707	0.209619	0.249814	0.326109	1.32359	19.2208	392.483	0.00410844	1.47044	1.4	0.393017	12
0.646824	0.211675	0.252265	0.329308	1.38512	17.6484	383.028	0.00386547	2.32877	1.4	0.393017	15
0.746171	0.214774	0.255957	0.334129	1.45708	15.9376	372.03	0.00359394	3.21221	1.4	0.393017	18
0.817951	0.217621	0.25935	0.338558	1.51123	14.7402	363.821	0.00339894	3.82304	1.4	0.393017	21
0.895434	0.221215	0.263634	0.34415	1.57156	13.4952	354.762	0.00319131	4.43896	1.4	0.393017	24
0.999323	0.226866	0.270369	0.352941	1.65433	11.9341	342.518	0.00292303	5.19595	1.4	0.393017	27
1.0742	0.231465	0.275849	0.360095	1.71621	10.8733	333.528	0.00273499	5.65437	1.4	0.393017	30
1.15853	0.237079	0.28254	0.36883	1.78188	9.84092	324.155	0.00254688	6.25045	1.4	0.393017	33
1.25367	0.244143	0.290958	0.379819	1.85394	8.81238	314.089	0.00235376	6.94938	1.4	0.393017	36
1.36191	0.252998	0.301511	0.393595	1.93953	7.72202	302.452	0.00214181	7.58253	1.4	0.393017	39
1.45014	0.260655	0.310637	0.405507	2.01465	6.87268	292.539	0.0019707	7.88733	1.4	0.393017	42
1.54915	0.26961	0.321309	0.419439	2.0985	6.03055	281.811	0.001795	8.17194	1.4	0.393017	45
1.66552	0.280679	0.3345	0.436659	2.19233	5.20681	270.239	0.00161629	8.55136	1.4	0.393017	48
1.80376	0.294459	0.350922	0.458097	2.30152	4.38812	257.357	0.00143043	8.95184	1.4	0.393017	51
1.91593	0.30597	0.364641	0.476005	2.38743	3.83705	247.67	0.00129965	9.25823	1.4	0.393017	54
2.02185	0.317225	0.378055	0.493515	2.46681	3.39027	239.062	0.00118966	9.52827	1.4	0.393017	57
2.31464	0.34846	0.415279	0.542108	2.63257	2.62129	222.123	0.000989981	9.17104	1.4	0.393017	60
2.6658	0.383001	0.456443	0.595844	2.78757	2.06601	207.513	0.000835162	8.2143	1.4	0.393017	63
3.04856	0.416055	0.495835	0.647267	2.92551	1.67503	195.449	0.00071897	7.0429	1.4	0.393017	66
3.45693	0.445594	0.531038	0.693221	3.04777	1.39406	185.46	0.000630599	5.80924	1.4	0.393017	69
3.88833	0.470583	0.560819	0.732098	3.15581	1.18781	177.156	0.000562417	4.59287	1.4	0.393017	72
4.33856	0.491043	0.585203	0.763928	3.24996	1.03406	170.285	0.000509424	3.44907	1.4	0.393017	75
4.80839	0.506404	0.603509	0.787825	3.33122	0.91872	164.628	0.00046816	2.40089	1.4	0.393017	78
5.2955	0.516919	0.61604	0.804183	3.39921	0.832853	160.077	0.000436471	1.4775	1.4	0.393017	81
5.79748	0.523058	0.623357	0.813735	3.45314	0.770875	156.581	0.00041302	0.708587	1.4	0.393017	84
6.31233	0.525364	0.626105	0.817322	3.49063	0.730776	154.209	0.000397558	0.146192	1.4	0.393017	87
6.83417	0.525533	0.626306	0.817584	3.5	0.721101	153.623	0.000393792	0	1.4	0.393017	90
7.3565	0.525533	0.626306	0.817584	3.5	0.721101	153.623	0.000393792	0	1.4	0.393017	93
7.87883	0.525533	0.626306	0.817584	3.5	0.721101	153.623	0.000393792	0	1.4	0.393017	96
8.40116	0.525533	0.626306	0.817584	3.5	0.721101	153.623	0.000393792	0	1.4	0.393017	99
8.92349	0.525533	0.626306	0.817584	3.5	0.721101	153.623	0.000393792	0	1.4	0.393017	102
9.44582	0.525533	0.626306	0.817584	3.5	0.721101	153.623	0.000393792	0	1.4	0.393017	105
9.96815	0.525533	0.626306	0.817584	3.5	0.721101	153.623	0.000393792	0	1.4	0.393017	108
10.4905	0.525533	0.626306	0.817584	3.5	0.721101	153.623	0.000393792	0	1.4	0.393017	111
11.0128	0.525533	0.626306	0.817584	3.5	0.721101	153.623	0.000393792	0	1.4	0.393017	114
11.5351	0.525533	0.626306	0.817584	3.5	0.721101	153.623	0.000393792	0	1.4	0.393017	117
12.0575	0.525533	0.626306	0.817584	3.5	0.721101	153.623	0.000393792	0	1.4	0.393017	120
12.5363	0.525398	0.626145	0.817375	3.5	0.721101	153.623	0.000393792	0	1.4	0.393017	158
0.659853	0.258932	0.21727	0.338011	1.49715	15.0442	365.949	0.00344887	3.91665	1.4	0.393017	0
0.407303	0.24784	0.207962	0.323532	1.23848	21.5611	405.581	0.00445984	0.186361	1.4	0.393017	3
0.437167	0.247829	0.207953	0.323518	1.25587	21.0676	402.907	0.00438669	0.375134	1.4	0.393017	6
0.486003	0.248426	0.208455	0.324298	1.28223	20.3343	398.85	0.00427709	0.822069	1.4	0.393017	9
0.554707	0.249814	0.209619	0.326109	1.32359	19.2208	392.483	0.00410844	1.47044	1.4	0.393017	12
0.646824	0.252265	0.211675	0.329308	1.38512	17.6484	383.028	0.00386547	2.32877	1.4	0.393017	15
0.746171	0.255957	0.214774	0.334129	1.45708	15.9376	372.03	0.00359394	3.21221	1.4	0.393017	18
0.817951	0.25935	0.217621	0.338558	1.51123	14.7402	363.821	0.00339894	3.82304	1.4	0.393017	21
0.895434	0.263634	0.221215	0.34415	1.57156	13.4952	354.762	0.00319131	4.43896	1.4	0.393017	24
0.999323	0.270369	0.226866	0.352941	1.65433	11.9341	342.518	0.00292303	5.19595	1.4	0.393017	27
1.0742	0.275849	0.231465	0.360095	1.71621	10.8733	333.528	0.00273499	5.65437	1.4	0.393017	30
1.15853	0.28254	0.237079	0.36883	1.78188	9.84092	324.155	0.00254688	6.25045	1.4	0.393017	33
1.25367	0.290958	0.244143	0.379819	1.85394	8.81238	314.089	0.00235376	6.94938	1.4	0.393017	36
1.36191	0.301511	0.252998	0.393595	1.93953	7.72202	302.452	0.00214181	7.58253	1.4	0.393017	39
1.45014	0.310637	0.260655	0.405507	2.01465	6.87268	292.539	0.0019707	7.88733	1.4	0.393017	42
1.54915	0.321309	0.26961	0.419439	2.0985	6.03055	281.811	0.001795	8.17194	1.4	0.393017	45
1.66552	0.3345	0.280679	0.436659	2.19233	5.20681	270.239	0.00161629	8.55136	1.4	0.393017	48
1.80376	0.350922	0.294459	0.458097	2.30152	4.38812	257.357	0.00143043	8.95184	1.4	0.393017	51
1.91593	0.364641	0.30597	0.476005	2.38743	3.83705	247.67	0.00129965	9.25823	1.4	0.393017	54
2.02185	0.378055	0.317225	0.493515	2.46681	3.39027	239.062	0.00118966	9.52827	1.4	0.393017	57
2.31464	0.415279	0.34846	0.542108	2.63257	2.62129	222.123	0.000989981	9.17104	1.4	0.393017	60
2.6658	0.456443	0.383001	0.595844	2.78757	2.06601	207.513	0.000835162	8.2143	1.4	0.393017	63
3.04856	0.495835	0.416055	0.647267	2.92551	1.67503	195.449	0.00071897	7.0429	1.4	0.393017	66
3.45693	0.531038	0.445594	0.693221	3.04777	1.39406	185.46	0.000630599	5.80924	1.4	0.393017	69
3.88833	0.560819	0.470583	0.732098	3.15581	1.18781	177.156	0.000562417	4.59287	1.4	0.393017	72
4.33856	0.585203	0.491043	0.763928	3.24996	1.03406	170.285	0.000509424	3.44907	1.4	0.393017	75
4.80839	0.603509	0.506404	0.787825	3.33122	0.91872	164.628	0.00046816	2.40089	1.4	0.393017	78
5.2955	0.61604	0.516919	0.804183	3.39921	0.832853	160.077	0.000436471	1.4775	1.4	0.393017	81
5.79748	0.623357	0.523058	0.813735	3.45314	0.770875	156.581	0.00041302	0.708587	1.4	0.393017	84
6.31233	0.626105	0.525364	0.817322	3.49063	0.730776	154.209	0.000397558	0.146192	1.4	0.393017	87
6.83417	0.626306	0.525533	0.817584	3.5	0.721101	153.623	0.000393792	0	1.4	0.393017	90
7.3565	0.626306	0.525533	0.817584	3.5	0.721101	153.623	0.000393792	0	1.4	0.393017	93
7.87883	0.626306	0.525533	0.817584	3.5	0.721101	153.623	0.000393792	0	1.4	0.393017	96
8.40116	0.626306	0.525533	0.817584	3.5	0.721101	153.623	0.000393792	0	1.4	0.393017	99
8.92349	0.626306	0.525533	0.817584	3.5	0.721101	153.623	0.000393792	0	1.4	0.393017	102
9.44582	0.626306	0.525533	0.817584	3.5	0.721101	153.623	0.000393792	0	1.4	0.393017	105
9.96815	0.626306	0.525533	0.817584	3.5	0.721101	153.623	0.000393792	0	1.4	0.393017	108
10.4905	0.626306	0.525533	0.817584	3.5	0.721101	153.623	0.000393792	0	1.4	0.393017	111
11.0128	0.626306	0.525533	0.817584	3.5	0.721101	153.623	0.000393792	0	1.4	0.393017	114
11.5351	0.626306	0.525533	0.817584	3.5	0.721101	153.623	0.000393792	0	1.4	0.393017	117
12.0575	0.626306	0.525533	0.817584	3.5	0.721101	153.623	0.000393792	0	1.4	0.393017	120
12.5363	0.626145	0.525398	0.817375	3.5	0.721101	153.623	0.000393792	0	1.4	0.393017	158
0.659853	0.292726	0.169006	0.338011	1.49715	15.0442	365.949	0.00344887	3.91665	1.4	0.393017	0
0.407303	0.280187	0.161766	0.323532	1.23848	21.5611	405.581	0.00445984	0.186361	1.4	0.393017	3
0.437167	0.280175	0.161759	0.323518	1.25587	21.0676	402.907	0.00438669	0.375134	1.4	0.393017	6
0.486003	0.28085	0.162149	0.324298	1.28223	20.3343	398.85	0.00427709	0.822069	1.4	0.393017	9
0.554707	0.282419	0.163055	0.326109	1.32359	19.2208	392.483	0.00410844	1.47044	1.4	0.393017	12
0.646824	0.285189	0.164654	0.329308	1.38512	17.6484	383.028	0.00386547	2.32877	1.4	0.393017	15
0.746171	0.289364	0.167064	0.334129	1.45708	15.9376	372.03	0.00359394	3.21221	1.4	0.393017	18
0.817951	0.2932	0.169279	0.338558	1.51123	14.7402	363.821	0.00339894	3.82304	1.4	0.393017	21
0.895434	0.298042	0.172075	0.34415	1.57156	13.4952	354.762	0.00319131	4.43896	1.4	0.393017	24
0.999323	0.305656	0.176471	0.352941	1.65433	11.9341	342.518	0.00292303	5.19595	1.4	0.393017	27
1.0742	0.311851	0.180047	0.360095	1.71621	10.8733	333.528	0.00273499	5.65437	1.4	0.393017	30
1.15853	0.319416	0.184415	0.36883	1.78188	9.84092	324.155	0.00254688	6.25045	1.4	0.393017	33
1.25367	0.328933	0.18991	0.379819	1.85394	8.81238	314.089	0.00235376	6.94938	1.4	0.393017	36
1.36191	0.340863	0.196798	0.393595	1.93953	7.72202	302.452	0.00214181	7.58253	1.4	0.393017	39
1.45014	0.35118	0.202754	0.405507	2.01465	6.87268	292.539	0.0019707	7.88733	1.4	0.393017	42
1.54915	0.363245	0.20972	0.419439	2.0985	6.03055	281.811	0.001795	8.17194	1.4	0.393017	45
1.66552	0.378157	0.218329	0.436659	2.19233	5.20681	270.239	0.00161629	8.55136	1.4	0.393017	48
1.80376	0.396723	0.229048	0.458097	2.30152	4.38812	257.357	0.00143043	8.95184	1.4	0.393017	51
1.91593	0.412233	0.238003	0.476005	2.38743	3.83705	247.67	0.00129965	9.25823	1.4	0.393017	54
2.02185	0.427397	0.246758	0.493515	2.46681	3.39027	239.062	0.00118966	9.52827	1.4	0.393017	57
2.31464	0.469479	0.271054	0.542108	2.63257	2.62129	222.123	0.000989981	9.17104	1.4	0.393017	60
2.6658	0.516016	0.297922	0.595844	2.78757	2.06601	207.513	0.000835162	8.2143	1.4	0.393017	63
3.04856	0.56055	0.323633	0.647267	2.92551	1.67503	195.449	0.00071897	7.0429	1.4	0.393017	66
3.45693	0.600347	0.346611	0.693221	3.04777	1.39406	185.46	0.000630599	5.80924	1.4	0.393017	69
3.88833	0.634015	0.366049	0.732098	3.15581	1.18781	177.156	0.000562417	4.59287	1.4	0.393017	72
4.33856	0.661581	0.381964	0.763928	3.24996	1.03406	170.285	0.000509424	3.44907	1.4	0.393017	75
4.80839	0.682276	0.393912	0.787825	3.33122	0.91872	164.628	0.00046816	2.40089	1.4	0.393017	78
5.2955	0.696443	0.402091	0.804183	3.39921	0.832853	160.077	0.000436471	1.4775	1.4	0.393017	81
5.79748	0.704715	0.406867	0.813735	3.45314	0.770875	156.581	0.00041302	0.708587	1.4	0.393017	84
6.31233	0.707821	0.408661	0.817322	3.49063	0.730776	154.209	0.000397558	0.146192	1.4	0.393017	87
6.83417	0.708048	0.408792	0.817584	3.5	0.721101	153.623	0.000393792	0	1.4	0.393017	90
7.3565	0.708048	0.408792	0.817584	3.5	0.721101	153.623	0.000393792	0	1.4	0.393017	93
7.87883	0.708048	0.408792	0.817584	3.5	0.721101	153.623	0.000393792	0	1.4	0.393017	96
8.40116	0.708048	0.408792	0.817584	3.5	0.721101	153.623	0.000393792	0	1.4	0.393017	99
8.92349	0.708048	0.408792	0.817584	3.5	0.721101	153.623	0.000393792	0	1.4	0.393017	102
9.44582	0.708048	0.408792	0.817584	3.5	0.721101	153.623	0.000393792	0	1.4	0.393017	105
9.96815	0.708048	0.408792	0.817584	3.5	0.721101	153.623	0.000393792	0	1.4	0.393017	108
10.4905	0.708048	0.408792	0.817584	3.5	0.721101	153.623	0.000393792	0	1.4	0.393017	111
11.0128	0.708048	0.408792	0.817584	3.5	0.721101	153.623	0.000393792	0	1.4	0.393017	114
11.5351	0.708048	0.408792	0.817584	3.5	0.721101	153.623	0.000393792	0	1.4	0.393017	117
12.0575	0.708048	0.408792	0.817584	3.5	0.721101	153.623	0.000393792	0	1.4	0.393017	120
12.5363	0.707867	0.408687	0.817375	3.5	0.721101	153.623	0.000393792	0	1.4	0.393017	158
0.659853	0.317627	0.115607	0.338011	1.49715	15.0442	365.949	0.00344887	3.91665	1.4	0.393017	0
0.407303	0.30402	0.110654	0.323532	1.23848	21.5611	405.581	0.00445984	0.186361	1.4	0.393017	3
0.437167	0.304008	0.11065	0.323518	1.25587	21.0676	402.907	0.00438669	0.375134	1.4	0.393017	6