VARIABLES = "X/R","R/R","Mach","Pres","Temp","Rho","Theta", "Gamma"
TITLE = "Primary MOC Contour Data file"
text  x=5  y=92  t="MOC Grid Development Contours"
zone t="Wall contour"
0	1	1.17779	23.3438	414.892	0.00472023	0	1.4
0.000230286	1	1.17789	23.341	414.878	0.00471983	0.0131944	1.4
0.000920735	1	1.17816	23.3326	414.836	0.00471862	0.0527543	1.4
0.00207073	1	1.17865	23.3179	414.761	0.0047165	0.118644	1.4
0.00367965	1.00001	1.17938	23.2961	414.65	0.00471334	0.210829	1.4
0.00574714	1.00002	1.18039	23.2657	414.495	0.00470895	0.329289	1.4
0.00827332	1.00003	1.18174	23.2252	414.289	0.00470309	0.474031	1.4
0.0112592	1.00006	1.18349	23.1725	414.021	0.00469547	0.645118	1.4
0.0147071	1.00011	1.18573	23.1054	413.678	0.00468575	0.842684	1.4
0.0186211	1.00017	1.18855	23.0212	413.246	0.00467355	1.06697	1.4
0.0230076	1.00026	1.19204	22.917	412.711	0.00465842	1.31835	1.4
0.027876	1.00039	1.19633	22.7896	412.054	0.00463992	1.59738	1.4
0.0332391	1.00055	1.20152	22.6358	411.258	0.00461753	1.90481	1.4
0.0391138	1.00077	1.20775	22.4521	410.301	0.00459073	2.24162	1.4
0.0455216	1.00104	1.21516	22.235	409.164	0.00455898	2.6091	1.4
0.0524892	1.00138	1.22389	21.9811	407.823	0.00452173	3.00879	1.4
0.0600488	1.0018	1.23409	21.687	406.257	0.00447843	3.44261	1.4
0.0682387	1.00233	1.2459	21.3494	404.44	0.00442853	3.91283	1.4
0.0725912	1.00264	1.25257	21.1604	403.414	0.00440049	4.16283	1.4
0.0771036	1.00298	1.2595	20.9655	402.349	0.0043715	4.4221	1.4
0.0814532	1.00332	1.26654	20.7684	401.264	0.00434211	4.6721	1.4
0.0866942	1.00377	1.27503	20.5326	399.957	0.00430684	4.97346	1.4
0.0910403	1.00415	1.28243	20.3287	398.818	0.00427625	5.22346	1.4
0.097068	1.00472	1.29269	20.0484	397.239	0.00423404	5.57036	1.4
0.10141	1.00516	1.30041	19.8391	396.05	0.00420243	5.82036	1.4
0.108289	1.00588	1.31265	19.5109	394.167	0.00415265	6.2167	1.4
0.112626	1.00636	1.32067	19.2978	392.932	0.0041202	6.4667	1.4
0.120429	1.00728	1.3351	18.9189	390.712	0.00406224	6.91684	1.4
0.124759	1.00781	1.3434	18.7035	389.436	0.00402916	7.16684	1.4
0.129087	1.00837	1.35169	18.4901	388.161	0.00399627	7.41684	1.4
0.133564	1.00896	1.36027	18.2713	386.843	0.00396243	7.67561	1.4
0.137887	1.00955	1.36881	18.0552	385.53	0.0039289	7.92561	1.4
0.142208	1.01016	1.37736	17.8412	384.219	0.00389558	8.17561	1.4
0.14778	1.01098	1.38838	17.5679	382.528	0.00385286	8.49832	1.4
0.152094	1.01163	1.39715	17.3526	381.183	0.00381908	8.74832	1.4
0.156406	1.01231	1.40593	17.1395	379.839	0.00378551	8.99832	1.4
0.163168	1.0134	1.4197	16.8091	377.733	0.00373324	9.39083	1.4
0.167471	1.01412	1.42868	16.5961	376.359	0.0036994	9.64083	1.4
0.171771	1.01486	1.43767	16.3854	374.988	0.00366579	9.89083	1.4
0.179825	1.0163	1.45452	15.996	372.419	0.00360334	10.3596	1.4
0.184116	1.0171	1.46371	15.7869	371.022	0.00356964	10.6096	1.4
0.188403	1.01791	1.47289	15.58	369.626	0.00353615	10.8596	1.4
0.192686	1.01874	1.48208	15.3752	368.232	0.0035029	11.1096	1.4
0.197856	1.01977	1.49319	15.1306	366.548	0.00346301	11.4116	1.4
0.202131	1.02064	1.50256	14.9268	365.131	0.00342962	11.6616	1.4
0.206403	1.02153	1.51193	14.7251	363.714	0.00339646	11.9116	1.4
0.21067	1.02244	1.52131	14.5256	362.299	0.00336352	12.1616	1.4
0.217373	1.02391	1.53608	14.2161	360.077	0.00331217	12.5548	1.4
0.221629	1.02487	1.54563	14.0189	358.642	0.00327928	12.8048	1.4
0.225882	1.02585	1.55519	13.8238	357.209	0.00324662	13.0548	1.4
0.230131	1.02684	1.56476	13.6308	355.778	0.00321419	13.3048	1.4
0.238493	1.02886	1.58366	13.2565	352.958	0.00315089	13.7976	1.4
0.242728	1.02991	1.59339	13.0672	351.511	0.00311868	14.0476	1.4
0.246959	1.03097	1.60313	12.88	350.064	0.0030867	14.2976	1.4
0.251185	1.03206	1.61289	12.6948	348.619	0.00305494	14.5476	1.4
0.255406	1.03317	1.62266	12.5117	347.175	0.00302341	14.7976	1.4
0.261346	1.03475	1.63646	12.2572	345.142	0.00297934	15.1499	1.4
0.26252	1.03507	1.63922	12.2067	344.736	0.00297058	15.2196	1.4
0.283232	1.04079	1.66052	11.824	341.612	0.00290375	15.6366	1.4
0.315344	1.0499	1.68538	11.3907	337.988	0.00282734	16.0174	1.4
0.35465	1.06131	1.71222	10.939	334.102	0.00274678	16.3466	1.4
0.399764	1.07466	1.74042	10.4817	330.051	0.00266426	16.6233	1.4
0.449866	1.08973	1.76967	10.0257	325.884	0.00258096	16.8468	1.4
0.504308	1.10631	1.79955	9.57875	321.665	0.00249823	17.023	1.4
0.562647	1.12425	1.82986	9.14429	317.427	0.00241676	17.1548	1.4
0.624476	1.1434	1.86033	8.72595	313.208	0.00233726	17.2475	1.4
0.689496	1.16362	1.89083	8.32524	309.029	0.00226008	17.3044	1.4
0.757425	1.18481	1.92122	7.94322	304.91	0.00218551	17.3292	1.4
0.828043	1.20684	1.95144	7.57998	300.859	0.00211365	17.3245	1.4
0.901144	1.22962	1.98142	7.23531	296.885	0.00204454	17.2928	1.4
0.97657	1.25307	2.01114	6.90848	292.99	0.00197814	17.2358	1.4
1.05416	1.27708	2.04057	6.59889	289.177	0.00191441	17.1555	1.4
1.13381	1.30159	2.06975	6.30528	285.441	0.00185317	17.0526	1.4
1.21538	1.32652	2.09865	6.02709	281.785	0.00179439	16.9293	1.4
1.2988	1.35181	2.12702	5.76575	278.238	0.00173847	16.7938	1.4
1.38397	1.37739	2.15506	5.51839	274.774	0.00168486	16.6419	1.4
1.4708	1.40322	2.18158	5.2941	271.536	0.00163566	16.5063	1.4
1.55912	1.42929	2.20675	5.08963	268.497	0.00159028	16.3836	1.4
1.64885	1.45555	2.23193	4.89291	265.49	0.00154613	16.2393	1.4
1.73998	1.48196	2.25706	4.70423	262.524	0.00150331	16.0767	1.4
1.83248	1.50846	2.28209	4.52351	259.602	0.00146182	15.8979	1.4
1.92633	1.535	2.30734	4.34826	256.688	0.00142114	15.6964	1.4
2.02152	1.56156	2.33259	4.17986	253.807	0.00138161	15.4789	1.4
2.11804	1.58809	2.3576	4.01961	250.988	0.00134356	15.2528	1.4
2.21589	1.61455	2.38225	3.8677	248.241	0.00130709	15.0215	1.4
2.31504	1.64093	2.40712	3.72036	245.501	0.00127133	14.7721	1.4
2.41548	1.66718	2.43156	3.58116	242.841	0.00123717	14.5213	1.4
2.51723	1.69329	2.4558	3.44838	240.234	0.00120423	14.2643	1.4
2.62026	1.71923	2.48013	3.3201	237.646	0.00117206	13.9947	1.4
2.72457	1.74496	2.50395	3.1993	235.142	0.00114144	13.7278	1.4
2.83021	1.77048	2.52886	3.07781	232.556	0.00111031	13.4269	1.4
2.93713	1.79575	2.5514	2.97195	230.242	0.00108289	13.1725	1.4
3.04524	1.8208	2.57338	2.87234	228.01	0.00105684	12.9229	1.4
3.15451	1.84562	2.59525	2.77667	225.814	0.00103157	12.6685	1.4
3.26497	1.87018	2.61728	2.68365	223.626	0.00100677	12.4037	1.4
3.37664	1.89445	2.63972	2.5922	221.422	0.000982145	12.1234	1.4
3.48955	1.91841	2.6627	2.50191	219.19	0.000957585	11.8253	1.4
3.60386	1.94202	2.68604	2.41353	216.95	0.000933301	11.5143	1.4
3.71944	1.96524	2.70889	2.33019	214.782	0.000910166	11.2092	1.4
3.83648	1.98812	2.73143	2.25091	212.668	0.000887937	10.9066	1.4
3.95472	2.01059	2.7532	2.17703	210.65	0.000867021	10.6161	1.4
4.07438	2.03271	2.77458	2.10692	208.689	0.000846983	10.3301	1.4
4.19506	2.0544	2.79572	2.03993	206.772	0.00082766	10.0447	1.4
4.31728	2.07574	2.81672	1.97563	204.888	0.000808939	9.75968	1.4
4.44071	2.09666	2.83719	1.91496	203.07	0.000791119	9.4819	1.4
4.56533	2.11716	2.85743	1.85692	201.293	0.000773916	9.20562	1.4
4.69124	2.13726	2.87735	1.80163	199.561	0.000757384	8.93307	1.4
4.81835	2.15693	2.89691	1.74899	197.878	0.000741512	8.6647	1.4
4.94678	2.17619	2.91631	1.6984	196.225	0.000726127	8.39711	1.4
5.07638	2.19502	2.93528	1.65044	194.626	0.000711419	8.13552	1.4
5.20708	2.21341	2.95399	1.60453	193.063	0.000697227	7.8763	1.4
5.33916	2.23137	2.97247	1.56052	191.535	0.000683513	7.61974	1.4
5.47235	2.24889	2.99059	1.5186	190.051	0.000670347	7.36771	1.4
5.60673	2.26597	3.00846	1.47844	188.601	0.000657636	7.11848	1.4
5.74242	2.28262	3.02608	1.43994	187.185	0.000645359	6.87225	1.4
5.87916	2.29881	3.04333	1.40326	185.81	0.000633573	6.63066	1.4
6.01704	2.31455	3.06032	1.36813	184.469	0.000622204	6.39237	1.4
6.15634	2.32986	3.07713	1.33428	183.153	0.000611169	6.15598	1.4
6.29667	2.34471	3.09359	1.30202	181.877	0.000600575	5.92432	1.4
6.43814	2.3591	3.10977	1.2711	180.632	0.000590354	5.69608	1.4
6.58068	2.37304	3.12563	1.24157	179.423	0.000580525	5.47216	1.4
6.72438	2.38653	3.14122	1.21324	178.244	0.000571031	5.25147	1.4
6.86922	2.39956	3.15654	1.18609	177.095	0.000561874	5.03443	1.4
7.01515	2.41214	3.17156	1.16009	175.977	0.000553049	4.82121	1.4
7.16222	2.42428	3.18633	1.13512	174.886	0.000544519	4.61114	1.4
7.31035	2.43595	3.20079	1.11123	173.827	0.00053631	4.4052	1.4
7.45955	2.44718	3.21497	1.08833	172.796	0.000528392	4.20291	1.4
7.60979	2.45796	3.22885	1.06641	171.794	0.000520767	4.00457	1.4
7.76106	2.46829	3.24243	1.04541	170.821	0.000513423	3.81014	1.4
7.91354	2.47819	3.25581	1.02516	169.869	0.0005063	3.61827	1.4
8.06698	2.48764	3.26887	1.0058	168.946	0.000499451	3.43058	1.4
8.22142	2.49665	3.28163	0.987267	168.05	0.000492859	3.2469	1.4
8.37655	2.50521	3.29394	0.969725	167.192	0.000486588	3.06915	1.4
8.53305	2.51336	3.30617	0.952641	166.345	0.000480449	2.89241	1.4
8.69055	2.52107	3.31811	0.936276	165.523	0.00047454	2.71951	1.4
8.84892	2.52836	3.32971	0.920658	164.73	0.000468872	2.55102	1.4
9.00827	2.53523	3.34104	0.905678	163.959	0.00046341	2.38611	1.4
9.16842	2.54168	3.352	0.891439	163.219	0.000458194	2.22617	1.4
9.32948	2.54772	3.36266	0.877821	162.502	0.000453183	2.07017	1.4
9.4916	2.55336	3.37311	0.864685	161.804	0.000448329	1.91688	1.4
9.6545	2.5586	3.38321	0.852195	161.133	0.000443694	1.7683	1.4
9.81821	2.56345	3.39296	0.840311	160.487	0.000439265	1.62427	1.4
9.9828	2.56791	3.40243	0.828949	159.864	0.000435015	1.48406	1.4
10.1482	2.572	3.41158	0.818128	159.265	0.000430951	1.34814	1.4
10.3143	2.57572	3.42036	0.807888	158.693	0.000427091	1.21719	1.4
10.4815	2.57908	3.42898	0.797978	158.135	0.000423342	1.08849	1.4
10.6493	2.58209	3.4372	0.788636	157.603	0.000419796	0.965043	1.4
10.8177	2.58475	3.44502	0.77987	157.101	0.000416458	0.847179	1.4
10.9869	2.58708	3.45251	0.771567	156.621	0.000413286	0.733784	1.4
11.1566	2.5891	3.45957	0.763822	156.17	0.000410318	0.626284	1.4
11.3271	2.59081	3.46626	0.756572	155.745	0.000407533	0.524106	1.4
11.4985	2.59222	3.4729	0.749445	155.325	0.000404787	0.422554	1.4
11.6702	2.59335	3.47884	0.74313	154.95	0.000402348	0.330919	1.4
11.8424	2.59422	3.48437	0.737305	154.602	0.000400093	0.245216	1.4
12.0153	2.59484	3.48941	0.732038	154.285	0.000398049	0.16669	1.4
12.1886	2.59523	3.49389	0.727391	154.005	0.000396242	0.0965099	1.4
12.3623	2.59543	3.49751	0.723652	153.778	0.000394787	0.0393517	1.4
12.5363	2.59548	3.5	0.721101	153.623	0.000393792	0	1.4
zone t="RRC BD"
0.26252	1.03507	1.63922	12.2067	344.736	0.00297058	15.2196	1.4
0.276572	1.02931	1.64323	12.134	344.147	0.00295791	15.2363	1.4
0.292079	1.02298	1.64795	12.0485	343.453	0.00294303	15.2461	1.4
0.308328	1.01641	1.65318	11.9546	342.686	0.00292662	15.2487	1.4
0.325309	1.00958	1.6589	11.8528	341.85	0.00290879	15.2446	1.4
0.343013	1.00252	1.66507	11.7436	340.947	0.00288963	15.2343	1.4
0.361426	0.995225	1.67168	11.6277	339.983	0.00286924	15.2184	1.4
0.380531	0.987721	1.6787	11.5058	338.96	0.00284772	15.1976	1.4
0.400312	0.980015	1.6861	11.3785	337.884	0.00282517	15.1724	1.4
0.42075	0.972119	1.69385	11.2464	336.759	0.0028017	15.1434	1.4
0.441827	0.964047	1.70194	11.11	335.587	0.00277739	15.111	1.4
0.463524	0.95581	1.71035	10.9698	334.372	0.00275232	15.0757	1.4
0.485823	0.94742	1.71906	10.8263	333.116	0.00272655	15.0377	1.4
0.508707	0.938888	1.72806	10.6799	331.822	0.00270016	14.9973	1.4
0.532159	0.930226	1.73734	10.5308	330.492	0.00267317	14.9547	1.4
0.556164	0.921441	1.74689	10.3792	329.126	0.00264564	14.9099	1.4
0.580709	0.912545	1.75671	10.2255	327.726	0.00261758	14.8628	1.4
0.605781	0.903545	1.76681	10.0696	326.29	0.00258902	14.8134	1.4
0.631368	0.894449	1.77718	9.9117	324.82	0.00255996	14.7613	1.4
0.657463	0.885264	1.78783	9.75184	323.315	0.0025304	14.7065	1.4
0.684057	0.875995	1.79878	9.59004	321.773	0.00250034	14.6484	1.4
0.711143	0.866649	1.81004	9.42627	320.193	0.00246976	14.5867	1.4
0.738717	0.857228	1.82162	9.26051	318.574	0.00243866	14.521	1.4
0.766776	0.847737	1.83354	9.09271	316.914	0.00240702	14.4508	1.4
0.7861	0.841256	1.84147	8.98269	315.814	0.00238618	14.4109	1.4
0.814747	0.83173	1.8539	8.81272	314.095	0.00235384	14.3329	1.4
0.834555	0.825197	1.86223	8.70048	312.947	0.00233239	14.2868	1.4
0.854504	0.818664	1.87071	8.58753	311.78	0.00231072	14.238	1.4
0.873623	0.812446	1.87794	8.49239	310.79	0.0022924	14.2175	1.4
0.892024	0.806503	1.88445	8.40755	309.899	0.00227602	14.2111	1.4
0.910439	0.800598	1.89117	8.32092	308.984	0.00225925	14.1999	1.4
0.929007	0.794684	1.89816	8.23154	308.032	0.00224188	14.1829	1.4
0.947421	0.78886	1.90503	8.14459	307.099	0.00222494	14.1685	1.4
0.966199	0.782962	1.91238	8.05266	306.104	0.00220698	14.1451	1.4
0.984903	0.777126	1.91966	7.96242	305.12	0.00218928	14.1232	1.4
1.00378	0.771276	1.92719	7.87025	304.107	0.00217115	14.097	1.4
1.023	0.765361	1.93512	7.7741	303.041	0.00215217	14.063	1.4
1.04182	0.759609	1.94263	7.68417	302.035	0.00213436	14.0377	1.4
1.05773	0.754774	1.94966	7.60093	301.096	0.00211782	13.9979	1.4
1.07701	0.74895	1.95774	7.50629	300.02	0.00209895	13.9622	1.4
1.09273	0.744229	1.96454	7.42744	299.117	0.00208318	13.9274	1.4
1.10901	0.739367	1.97196	7.34233	298.133	0.0020661	13.8812	1.4
1.12496	0.734627	1.97903	7.26213	297.199	0.00204995	13.8419	1.4
1.14077	0.729954	1.98601	7.18383	296.28	0.00203414	13.8041	1.4
1.15704	0.725167	1.99355	7.1001	295.289	0.00201718	13.7555	1.4
1.17336	0.720393	2.00118	7.01633	294.29	0.00200015	13.7051	1.4
1.18888	0.715872	2.00798	6.94247	293.401	0.00198509	13.6701	1.4
1.2049	0.711229	2.01544	6.86234	292.43	0.00196869	13.6223	1.4
1.21956	0.706999	2.02261	6.78618	291.499	0.00195306	13.5694	1.4
1.23402	0.702845	2.02961	6.71257	290.592	0.00193791	13.5191	1.4
1.24776	0.698915	2.03589	6.64721	289.781	0.00192441	13.4817	1.4
1.26332	0.694481	2.04329	6.57103	288.828	0.00190863	13.4319	1.4
1.27678	0.690661	2.05004	6.50216	287.96	0.00189432	13.3793	1.4
1.29086	0.686678	2.05711	6.43087	287.054	0.00187946	13.3243	1.4
1.30414	0.682938	2.06343	6.36784	286.247	0.00186629	13.2821	1.4
1.31655	0.679453	2.06943	6.30848	285.482	0.00185384	13.2402	1.4
1.32907	0.675952	2.07573	6.24679	284.682	0.00184088	13.1914	1.4
1.34145	0.672498	2.08207	6.18523	283.877	0.0018279	13.1401	1.4
1.35357	0.669128	2.08833	6.12504	283.086	0.00181518	13.0886	1.4
1.36529	0.665877	2.09438	6.06745	282.322	0.00180297	13.0391	1.4
1.37591	0.662939	2.09944	6.01967	281.685	0.00179282	13.0056	1.4
1.38658	0.659996	2.10485	5.96906	281.007	0.00178204	12.9635	1.4
1.39675	0.657196	2.11018	5.91954	280.339	0.00177146	12.9186	1.4
1.40653	0.654511	2.11538	5.87158	279.688	0.0017612	12.8734	1.4
1.41062	0.653391	2.1182	5.84582	279.337	0.00175568	12.8375	1.4
1.41333	0.652646	2.12041	5.82563	279.061	0.00175134	12.8045	1.4
1.41856	0.651214	2.12361	5.79655	278.662	0.0017451	12.769	1.4
1.42585	0.649218	2.12725	5.76371	278.21	0.00173803	12.7416	1.4
1.43601	0.646442	2.13218	5.71946	277.598	0.00172849	12.7072	1.4
1.44915	0.642863	2.13847	5.66342	276.818	0.00171637	12.665	1.4
1.46525	0.638493	2.14607	5.59651	275.88	0.00170186	12.6166	1.4
1.48434	0.633335	2.15501	5.51885	274.781	0.00168496	12.5618	1.4
1.50657	0.627359	2.16543	5.42962	273.504	0.00166546	12.4982	1.4
1.53227	0.620491	2.17765	5.32681	272.014	0.00164287	12.4211	1.4
1.56191	0.612623	2.19216	5.20717	270.254	0.00161643	12.3222	1.4
1.59635	0.603544	2.20991	5.06454	268.118	0.00158468	12.1858	1.4
1.6375	0.592768	2.23299	4.8848	265.364	0.0015443	11.9753	1.4
1.69623	0.57747	2.27038	4.60715	260.965	0.00148108	11.5606	1.4
1.76244	0.560289	2.31188	4.31752	256.168	0.00141396	11.1081	1.4
1.82669	0.543683	2.34981	4.06883	251.863	0.0013553	10.7269	1.4
1.89868	0.525144	2.39348	3.80044	247	0.00129082	10.2716	1.4
1.93527	0.515739	2.41501	3.67487	244.64	0.00126021	10.0567	1.4
1.97459	0.505643	2.43886	3.54065	242.053	0.00122716	9.80873	1.4
2.0113	0.496223	2.46045	3.42346	239.736	0.00119801	9.59359	1.4
2.05659	0.484603	2.48774	3.28103	236.843	0.00116219	9.31329	1.4
2.09374	0.475073	2.50971	3.17078	234.541	0.00113416	9.09337	1.4
2.14589	0.461689	2.54098	3.0204	231.308	0.00109547	8.77533	1.4
2.1835	0.452029	2.56329	2.91764	229.032	0.00106872	8.5521	1.4
2.24348	0.436603	2.59913	2.76006	225.427	0.00102716	8.19098	1.4
2.28162	0.426777	2.62176	2.66512	223.184	0.0010018	7.96545	1.4
2.35056	0.408974	2.66281	2.50147	219.179	0.000957465	7.55582	1.4
2.38934	0.398934	2.68579	2.41447	216.974	0.000933559	7.32858	1.4
2.42827	0.388833	2.70889	2.33018	214.782	0.000910163	7.10022	1.4
2.46848	0.378372	2.73266	2.24668	212.554	0.000886744	6.86706	1.4
2.50815	0.368024	2.75615	2.16721	210.378	0.000864227	6.63664	1.4
2.54774	0.357671	2.77944	2.09132	208.247	0.0008425	6.41036	1.4
2.59918	0.344172	2.80975	1.99671	205.51	0.000815097	6.11626	1.4
2.63968	0.333503	2.83353	1.92568	203.394	0.000794277	5.88741	1.4
2.68037	0.322751	2.85737	1.85709	201.298	0.000773966	5.65885	1.4
2.74457	0.30571	2.89485	1.75445	198.054	0.000743163	5.30241	1.4
2.78628	0.294585	2.91915	1.69113	195.985	0.000723904	5.07276	1.4
2.82818	0.283369	2.94347	1.63018	193.94	0.000705173	4.84464	1.4
2.90743	0.262027	2.98931	1.52152	190.155	0.000671267	4.41788	1.4
2.95055	0.250347	3.01413	1.46593	188.144	0.000653658	4.1892	1.4
2.99401	0.238523	3.0391	1.41216	186.146	0.000636442	3.96015	1.4
3.03772	0.22658	3.06408	1.36049	184.174	0.000619719	3.73321	1.4
3.09103	0.211941	3.0945	1.30026	181.807	0.000599996	3.4582	1.4
3.13598	0.199535	3.12003	1.25191	179.849	0.000583975	3.22941	1.4
3.18129	0.18697	3.14567	1.20529	177.909	0.000568356	3.00134	1.4
3.22698	0.174238	3.17143	1.16031	175.986	0.000553123	2.77384	1.4
3.29966	0.153859	3.21223	1.09272	172.994	0.000529914	2.41698	1.4
3.34684	0.140544	3.23856	1.05134	171.097	0.000515502	2.18897	1.4
3.39449	0.127029	3.26508	1.01138	169.213	0.000501427	1.96098	1.4
3.44258	0.113318	3.29171	0.972884	167.347	0.00048772	1.73409	1.4
3.53888	0.0856511	3.34475	0.900834	163.708	0.000461638	1.28704	1.4
3.58882	0.0711898	3.37195	0.866127	161.881	0.000448863	1.06171	1.4
3.63941	0.0564594	3.39969	0.832218	160.044	0.000436239	0.83113	1.4
3.69047	0.0415153	3.42717	0.800045	158.251	0.000424125	0.607961	1.4
3.74217	0.0262972	3.4553	0.7685	156.443	0.000412112	0.377185	1.4
3.81598	0.0044146	3.49351	0.727778	154.028	0.000396393	0.0516255	1.4
3.8308	0	3.5	0.721101	153.623	0.000393792	0	1.4
zone t="LRC DE"
3.8308	0	3.5	0.721101	153.623	0.000393792	0	1.4
3.91785	0.0259548	3.5	0.721101	153.623	0.000393792	0	1.4
4.00491	0.0519096	3.5	0.721101	153.623	0.000393792	0	1.4
4.09196	0.0778644	3.5	0.721101	153.623	0.000393792	0	1.4
4.17902	0.103819	3.5	0.721101	153.623	0.000393792	0	1.4
4.26607	0.129774	3.5	0.721101	153.623	0.000393792	0	1.4
4.35313	0.155729	3.5	0.721101	153.623	0.000393792	0	1.4
4.44018	0.181683	3.5	0.721101	153.623	0.000393792	0	1.4
4.52724	0.207638	3.5	0.721101	153.623	0.000393792	0	1.4
4.61429	0.233593	3.5	0.721101	153.623	0.000393792	0	1.4
4.70135	0.259548	3.5	0.721101	153.623	0.000393792	0	1.4
4.7884	0.285503	3.5	0.721101	153.623	0.000393792	0	1.4
4.87546	0.311457	3.5	0.721101	153.623	0.000393792	0	1.4
4.96251	0.337412	3.5	0.721101	153.623	0.000393792	0	1.4
5.04957	0.363367	3.5	0.721101	153.623	0.000393792	0	1.4
5.13662	0.389322	3.5	0.721101	153.623	0.000393792	0	1.4
5.22368	0.415277	3.5	0.721101	153.623	0.000393792	0	1.4
5.31073	0.441231	3.5	0.721101	153.623	0.000393792	0	1.4
5.39779	0.467186	3.5	0.721101	153.623	0.000393792	0	1.4
5.48484	0.493141	3.5	0.721101	153.623	0.000393792	0	1.4
5.5719	0.519096	3.5	0.721101	153.623	0.000393792	0	1.4
5.65895	0.54505	3.5	0.721101	153.623	0.000393792	0	1.4
5.74601	0.571005	3.5	0.721101	153.623	0.000393792	0	1.4
5.83306	0.59696	3.5	0.721101	153.623	0.000393792	0	1.4
5.92012	0.622915	3.5	0.721101	153.623	0.000393792	0	1.4
6.00717	0.64887	3.5	0.721101	153.623	0.000393792	0	1.4
6.09423	0.674824	3.5	0.721101	153.623	0.000393792	0	1.4
6.18128	0.700779	3.5	0.721101	153.623	0.000393792	0	1.4
6.26834	0.726734	3.5	0.721101	153.623	0.000393792	0	1.4
6.35539	0.752689	3.5	0.721101	153.623	0.000393792	0	1.4
6.44245	0.778644	3.5	0.721101	153.623	0.000393792	0	1.4
6.5295	0.804598	3.5	0.721101	153.623	0.000393792	0	1.4
6.61656	0.830553	3.5	0.721101	153.623	0.000393792	0	1.4
6.70361	0.856508	3.5	0.721101	153.623	0.000393792	0	1.4
6.79067	0.882463	3.5	0.721101	153.623	0.000393792	0	1.4
6.87772	0.908417	3.5	0.721101	153.623	0.000393792	0	1.4
6.96478	0.934372	3.5	0.721101	153.623	0.000393792	0	1.4
7.05183	0.960327	3.5	0.721101	153.623	0.000393792	0	1.4
7.13889	0.986282	3.5	0.721101	153.623	0.000393792	0	1.4
7.22594	1.01224	3.5	0.721101	153.623	0.000393792	0	1.4
7.313	1.03819	3.5	0.721101	153.623	0.000393792	0	1.4
7.40005	1.06415	3.5	0.721101	153.623	0.000393792	0	1.4
7.48711	1.0901	3.5	0.721101	153.623	0.000393792	0	1.4
7.57416	1.11606	3.5	0.721101	153.623	0.000393792	0	1.4
7.66122	1.14201	3.5	0.721101	153.623	0.000393792	0	1.4
7.74827	1.16797	3.5	0.721101	153.623	0.000393792	0	1.4
7.83533	1.19392	3.5	0.721101	153.623	0.000393792	0	1.4
7.92238	1.21987	3.5	0.721101	153.623	0.000393792	0	1.4
8.00944	1.24583	3.5	0.721101	153.623	0.000393792	0	1.4
8.09649	1.27178	3.5	0.721101	153.623	0.000393792	0	1.4
8.18355	1.29774	3.5	0.721101	153.623	0.000393792	0	1.4
8.2706	1.32369	3.5	0.721101	153.623	0.000393792	0	1.4
8.35766	1.34965	3.5	0.721101	153.623	0.000393792	0	1.4
8.44471	1.3756	3.5	0.721101	153.623	0.000393792	0	1.4
8.53177	1.40156	3.5	0.721101	153.623	0.000393792	0	1.4
8.61882	1.42751	3.5	0.721101	153.623	0.000393792	0	1.4
8.70588	1.45347	3.5	0.721101	153.623	0.000393792	0	1.4
8.79293	1.47942	3.5	0.721101	153.623	0.000393792	0	1.4
8.87999	1.50538	3.5	0.721101	153.623	0.000393792	0	1.4
8.96704	1.53133	3.5	0.721101	153.623	0.000393792	0	1.4
9.0541	1.55729	3.5	0.721101	153.623	0.000393792	0	1.4
9.14115	1.58324	3.5	0.721101	153.623	0.000393792	0	1.4
9.22821	1.6092	3.5	0.721101	153.623	0.000393792	0	1.4
9.31526	1.63515	3.5	0.721101	153.623	0.000393792	0	1.4
9.40232	1.66111	3.5	0.721101	153.623	0.000393792	0	1.4
9.48937	1.68706	3.5	0.721101	153.623	0.000393792	0	1.4
9.57643	1.71302	3.5	0.721101	153.623	0.000393792	0	1.4
9.66348	1.73897	3.5	0.721101	153.623	0.000393792	0	1.4
9.75054	1.76493	3.5	0.721101	153.623	0.000393792	0	1.4
9.83759	1.79088	3.5	0.721101	153.623	0.000393792	0	1.4
9.92465	1.81683	3.5	0.721101	153.623	0.000393792	0	1.4
10.0117	1.84279	3.5	0.721101	153.623	0.000393792	0	1.4
10.0988	1.86874	3.5	0.721101	153.623	0.000393792	0	1.4
10.1858	1.8947	3.5	0.721101	153.623	0.000393792	0	1.4
10.2729	1.92065	3.5	0.721101	153.623	0.000393792	0	1.4
10.3599	1.94661	3.5	0.721101	153.623	0.000393792	0	1.4
10.447	1.97256	3.5	0.721101	153.623	0.000393792	0	1.4
10.534	1.99852	3.5	0.721101	153.623	0.000393792	0	1.4
10.6211	2.02447	3.5	0.721101	153.623	0.000393792	0	1.4
10.7081	2.05043	3.5	0.721101	153.623	0.000393792	0	1.4
10.7952	2.07638	3.5	0.721101	153.623	0.000393792	0	1.4
10.8823	2.10234	3.5	0.721101	153.623	0.000393792	0	1.4
10.9693	2.12829	3.5	0.721101	153.623	0.000393792	0	1.4
11.0564	2.15425	3.5	0.721101	153.623	0.000393792	0	1.4
11.1434	2.1802	3.5	0.721101	153.623	0.000393792	0	1.4
11.2305	2.20616	3.5	0.721101	153.623	0.000393792	0	1.4
11.3175	2.23211	3.5	0.721101	153.623	0.000393792	0	1.4
11.4046	2.25807	3.5	0.721101	153.623	0.000393792	0	1.4
11.4916	2.28402	3.5	0.721101	153.623	0.000393792	0	1.4
11.5787	2.30998	3.5	0.721101	153.623	0.000393792	0	1.4
11.6657	2.33593	3.5	0.721101	153.623	0.000393792	0	1.4
11.7528	2.36189	3.5	0.721101	153.623	0.000393792	0	1.4
11.8399	2.38784	3.5	0.721101	153.623	0.000393792	0	1.4
11.9269	2.41379	3.5	0.721101	153.623	0.000393792	0	1.4
12.014	2.43975	3.5	0.721101	153.623	0.000393792	0	1.4
12.101	2.4657	3.5	0.721101	153.623	0.000393792	0	1.4
12.1881	2.49166	3.5	0.721101	153.623	0.000393792	0	1.4
12.2751	2.51761	3.5	0.721101	153.623	0.000393792	0	1.4
12.3622	2.54357	3.5	0.721101	153.623	0.000393792	0	1.4
12.4492	2.56952	3.5	0.721101	153.623	0.000393792	0	1.4
12.5363	2.59548	3.5	0.721101	153.623	0.000393792	0	1.4
