VARIABLES = "X(in)","Y(in)","Z(in)"
TITLE = "Initial Wall Plot"
text  x=5  y=93  t="Initial Wall Plot"
zone t="K = 0" I =37 J = 1 K = 1
1	0	0
0.984808	0.173648	0
0.939693	0.34202	0
0.866025	0.5	0
0.766044	0.642788	0
0.642788	0.766044	0
0.5	0.866025	0
0.34202	0.939693	0
0.173648	0.984808	0
0	1	0
-0.173648	0.984808	0
-0.34202	0.939693	0
-0.5	0.866025	0
-0.642788	0.766044	0
-0.766044	0.642788	0
-0.866025	0.5	0
-0.939693	0.34202	0
-0.984808	0.173648	0
-1	0	0
-0.984808	-0.173648	0
-0.939693	-0.34202	0
-0.866025	-0.5	0
-0.766044	-0.642788	0
-0.642788	-0.766044	0
-0.5	-0.866025	0
-0.34202	-0.939693	0
-0.173648	-0.984808	0
0	-1	0
0.173648	-0.984808	0
0.34202	-0.939693	0
0.5	-0.866025	0
0.642788	-0.766044	0
0.766044	-0.642788	0
0.866025	-0.5	0
0.939693	-0.34202	0
0.984808	-0.173648	0
1	0	0

zone t="K = 1" I =37 J = 1 K = 1
1	0	0.000168491
0.984808	0.173648	0.000168491
0.939693	0.34202	0.000168491
0.866025	0.5	0.000168491
0.766044	0.642788	0.000168491
0.642788	0.766044	0.000168491
0.5	0.866025	0.000168491
0.34202	0.939693	0.000168491
0.173648	0.984808	0.000168491
0	1	0.000168491
-0.173648	0.984808	0.000168491
-0.34202	0.939693	0.000168491
-0.5	0.866025	0.000168491
-0.642788	0.766044	0.000168491
-0.766044	0.642788	0.000168491
-0.866025	0.5	0.000168491
-0.939693	0.34202	0.000168491
-0.984808	0.173648	0.000168491
-1	0	0.000168491
-0.984808	-0.173648	0.000168491
-0.939693	-0.34202	0.000168491
-0.866025	-0.5	0.000168491
-0.766044	-0.642788	0.000168491
-0.642788	-0.766044	0.000168491
-0.5	-0.866025	0.000168491
-0.34202	-0.939693	0.000168491
-0.173648	-0.984808	0.000168491
0	-1	0.000168491
0.173648	-0.984808	0.000168491
0.34202	-0.939693	0.000168491
0.5	-0.866025	0.000168491
0.642788	-0.766044	0.000168491
0.766044	-0.642788	0.000168491
0.866025	-0.5	0.000168491
0.939693	-0.34202	0.000168491
0.984808	-0.173648	0.000168491
1	0	0.000168491

zone t="K = 2" I =37 J = 1 K = 1
1	0	0.000675054
0.984808	0.173648	0.000675054
0.939693	0.34202	0.000675054
0.866025	0.5	0.000675054
0.766044	0.642788	0.000675054
0.642788	0.766044	0.000675054
0.5	0.866025	0.000675054
0.34202	0.939693	0.000675054
0.173648	0.984808	0.000675054
0	1	0.000675054
-0.173648	0.984808	0.000675054
-0.34202	0.939693	0.000675054
-0.5	0.866025	0.000675054
-0.642788	0.766044	0.000675054
-0.766044	0.642788	0.000675054
-0.866025	0.5	0.000675054
-0.939693	0.34202	0.000675054
-0.984808	0.173648	0.000675054
-1	0	0.000675054
-0.984808	-0.173648	0.000675054
-0.939693	-0.34202	0.000675054
-0.866025	-0.5	0.000675054
-0.766044	-0.642788	0.000675054
-0.642788	-0.766044	0.000675054
-0.5	-0.866025	0.000675054
-0.34202	-0.939693	0.000675054
-0.173648	-0.984808	0.000675054
0	-1	0.000675054
0.173648	-0.984808	0.000675054
0.34202	-0.939693	0.000675054
0.5	-0.866025	0.000675054
0.642788	-0.766044	0.000675054
0.766044	-0.642788	0.000675054
0.866025	-0.5	0.000675054
0.939693	-0.34202	0.000675054
0.984808	-0.173648	0.000675054
1	0	0.000675054

zone t="K = 3" I =37 J = 1 K = 1
1	0	0.0015229
0.984808	0.173648	0.0015229
0.939693	0.34202	0.0015229
0.866025	0.5	0.0015229
0.766044	0.642788	0.0015229
0.642788	0.766044	0.0015229
0.5	0.866025	0.0015229
0.34202	0.939693	0.0015229
0.173648	0.984808	0.0015229
0	1	0.0015229
-0.173648	0.984808	0.0015229
-0.34202	0.939693	0.0015229
-0.5	0.866025	0.0015229
-0.642788	0.766044	0.0015229
-0.766044	0.642788	0.0015229
-0.866025	0.5	0.0015229
-0.939693	0.34202	0.0015229
-0.984808	0.173648	0.0015229
-1	0	0.0015229
-0.984808	-0.173648	0.0015229
-0.939693	-0.34202	0.0015229
-0.866025	-0.5	0.0015229
-0.766044	-0.642788	0.0015229
-0.642788	-0.766044	0.0015229
-0.5	-0.866025	0.0015229
-0.34202	-0.939693	0.0015229
-0.173648	-0.984808	0.0015229
0	-1	0.0015229
0.173648	-0.984808	0.0015229
0.34202	-0.939693	0.0015229
0.5	-0.866025	0.0015229
0.642788	-0.766044	0.0015229
0.766044	-0.642788	0.0015229
0.866025	-0.5	0.0015229
0.939693	-0.34202	0.0015229
0.984808	-0.173648	0.0015229
1	0	0.0015229

zone t="K = 4" I =37 J = 1 K = 1
1	0	0.00271722
0.984808	0.173648	0.00271722
0.939693	0.34202	0.00271722
0.866025	0.5	0.00271722
0.766044	0.642788	0.00271722
0.642788	0.766044	0.00271722
0.5	0.866025	0.00271722
0.34202	0.939693	0.00271722
0.173648	0.984808	0.00271722
0	1	0.00271722
-0.173648	0.984808	0.00271722
-0.34202	0.939693	0.00271722
-0.5	0.866025	0.00271722
-0.642788	0.766044	0.00271722
-0.766044	0.642788	0.00271722
-0.866025	0.5	0.00271722
-0.939693	0.34202	0.00271722
-0.984808	0.173648	0.00271722
-1	0	0.00271722
-0.984808	-0.173648	0.00271722
-0.939693	-0.34202	0.00271722
-0.866025	-0.5	0.00271722
-0.766044	-0.642788	0.00271722
-0.642788	-0.766044	0.00271722
-0.5	-0.866025	0.00271722
-0.34202	-0.939693	0.00271722
-0.173648	-0.984808	0.00271722
0	-1	0.00271722
0.173648	-0.984808	0.00271722
0.34202	-0.939693	0.00271722
0.5	-0.866025	0.00271722
0.642788	-0.766044	0.00271722
0.766044	-0.642788	0.00271722
0.866025	-0.5	0.00271722
0.939693	-0.34202	0.00271722
0.984808	-0.173648	0.00271722
1	0	0.00271722

zone t="K = 5" I =37 J = 1 K = 1
1.00001	0	0.00426488
0.984818	0.17365	0.00426488
0.939702	0.342024	0.00426488
0.866034	0.500005	0.00426488
0.766052	0.642794	0.00426488
0.642794	0.766052	0.00426488
0.500005	0.866034	0.00426488
0.342024	0.939702	0.00426488
0.17365	0.984818	0.00426488
0	1.00001	0.00426488
-0.17365	0.984818	0.00426488
-0.342024	0.939702	0.00426488
-0.500005	0.866034	0.00426488
-0.642794	0.766052	0.00426488
-0.766052	0.642794	0.00426488
-0.866034	0.500005	0.00426488
-0.939702	0.342024	0.00426488
-0.984818	0.17365	0.00426488
-1.00001	0	0.00426488
-0.984818	-0.17365	0.00426488
-0.939702	-0.342024	0.00426488
-0.866034	-0.500005	0.00426488
-0.766052	-0.642794	0.00426488
-0.642794	-0.766052	0.00426488
-0.500005	-0.866034	0.00426488
-0.342024	-0.939702	0.00426488
-0.17365	-0.984818	0.00426488
0	-1.00001	0.00426488
0.17365	-0.984818	0.00426488
0.342024	-0.939702	0.00426488
0.500005	-0.866034	0.00426488
0.642794	-0.766052	0.00426488
0.766052	-0.642794	0.00426488
0.866034	-0.500005	0.00426488
0.939702	-0.342024	0.00426488
0.984818	-0.17365	0.00426488
1.00001	0	0.00426488

zone t="K = 6" I =37 J = 1 K = 1
1.00002	0	0.00617421
0.984827	0.173652	0.00617421
0.939711	0.342027	0.00617421
0.866043	0.50001	0.00617421
0.76606	0.6428	0.00617421
0.6428	0.76606	0.00617421
0.50001	0.866043	0.00617421
0.342027	0.939711	0.00617421
0.173652	0.984827	0.00617421
0	1.00002	0.00617421
-0.173652	0.984827	0.00617421
-0.342027	0.939711	0.00617421
-0.50001	0.866043	0.00617421
-0.6428	0.76606	0.00617421
-0.76606	0.6428	0.00617421
-0.866043	0.50001	0.00617421
-0.939711	0.342027	0.00617421
-0.984827	0.173652	0.00617421
-1.00002	0	0.00617421
-0.984827	-0.173652	0.00617421
-0.939711	-0.342027	0.00617421
-0.866043	-0.50001	0.00617421
-0.76606	-0.6428	0.00617421
-0.6428	-0.76606	0.00617421
-0.50001	-0.866043	0.00617421
-0.342027	-0.939711	0.00617421
-0.173652	-0.984827	0.00617421
0	-1.00002	0.00617421
0.173652	-0.984827	0.00617421
0.342027	-0.939711	0.00617421
0.50001	-0.866043	0.00617421
0.6428	-0.76606	0.00617421
0.76606	-0.6428	0.00617421
0.866043	-0.50001	0.00617421
0.939711	-0.342027	0.00617421
0.984827	-0.173652	0.00617421
1.00002	0	0.00617421

zone t="K = 7" I =37 J = 1 K = 1
1.00004	0	0.00845462
0.984847	0.173655	0.00845462
0.93973	0.342034	0.00845462
0.86606	0.50002	0.00845462
0.766075	0.642813	0.00845462
0.642813	0.766075	0.00845462
0.50002	0.86606	0.00845462
0.342034	0.93973	0.00845462
0.173655	0.984847	0.00845462
0	1.00004	0.00845462
-0.173655	0.984847	0.00845462
-0.342034	0.93973	0.00845462
-0.50002	0.86606	0.00845462
-0.642813	0.766075	0.00845462
-0.766075	0.642813	0.00845462
-0.86606	0.50002	0.00845462
-0.93973	0.342034	0.00845462
-0.984847	0.173655	0.00845462
-1.00004	0	0.00845462
-0.984847	-0.173655	0.00845462
-0.93973	-0.342034	0.00845462
-0.86606	-0.50002	0.00845462
-0.766075	-0.642813	0.00845462
-0.642813	-0.766075	0.00845462
-0.50002	-0.86606	0.00845462
-0.342034	-0.93973	0.00845462
-0.173655	-0.984847	0.00845462
0	-1.00004	0.00845462
0.173655	-0.984847	0.00845462
0.342034	-0.93973	0.00845462
0.50002	-0.86606	0.00845462
0.642813	-0.766075	0.00845462
0.766075	-0.642813	0.00845462
0.86606	-0.50002	0.00845462
0.93973	-0.342034	0.00845462
0.984847	-0.173655	0.00845462
1.00004	0	0.00845462

zone t="K = 8" I =37 J = 1 K = 1
1.00006	0	0.0111163
0.984867	0.173659	0.0111163
0.939749	0.342041	0.0111163
0.866077	0.50003	0.0111163
0.76609	0.642826	0.0111163
0.642826	0.76609	0.0111163
0.50003	0.866077	0.0111163
0.342041	0.939749	0.0111163
0.173659	0.984867	0.0111163
0	1.00006	0.0111163
-0.173659	0.984867	0.0111163
-0.342041	0.939749	0.0111163
-0.50003	0.866077	0.0111163
-0.642826	0.76609	0.0111163
-0.76609	0.642826	0.0111163
-0.866077	0.50003	0.0111163
-0.939749	0.342041	0.0111163
-0.984867	0.173659	0.0111163
-1.00006	0	0.0111163
-0.984867	-0.173659	0.0111163
-0.939749	-0.342041	0.0111163
-0.866077	-0.50003	0.0111163
-0.76609	-0.642826	0.0111163
-0.642826	-0.76609	0.0111163
-0.50003	-0.866077	0.0111163
-0.342041	-0.939749	0.0111163
-0.173659	-0.984867	0.0111163
0	-1.00006	0.0111163
0.173659	-0.984867	0.0111163
0.342041	-0.939749	0.0111163
0.50003	-0.866077	0.0111163
0.642826	-0.76609	0.0111163
0.76609	-0.642826	0.0111163
0.866077	-0.50003	0.0111163
0.939749	-0.342041	0.0111163
0.984867	-0.173659	0.0111163
1.00006	0	0.0111163

zone t="K = 9" I =37 J = 1 K = 1
1.0001	0	0.0141701
0.984906	0.173666	0.0141701
0.939787	0.342054	0.0141701
0.866112	0.50005	0.0141701
0.766121	0.642852	0.0141701
0.642852	0.766121	0.0141701
0.50005	0.866112	0.0141701
0.342054	0.939787	0.0141701
0.173666	0.984906	0.0141701
0	1.0001	0.0141701
-0.173666	0.984906	0.0141701
-0.342054	0.939787	0.0141701
-0.50005	0.866112	0.0141701
-0.642852	0.766121	0.0141701
-0.766121	0.642852	0.0141701
-0.866112	0.50005	0.0141701
-0.939787	0.342054	0.0141701
-0.984906	0.173666	0.0141701
-1.0001	0	0.0141701
-0.984906	-0.173666	0.0141701
-0.939787	-0.342054	0.0141701
-0.866112	-0.50005	0.0141701
-0.766121	-0.642852	0.0141701
-0.642852	-0.766121	0.0141701
-0.50005	-0.866112	0.0141701
-0.342054	-0.939787	0.0141701
-0.173666	-0.984906	0.0141701
0	-1.0001	0.0141701
0.173666	-0.984906	0.0141701
0.342054	-0.939787	0.0141701
0.50005	-0.866112	0.0141701
0.642852	-0.766121	0.0141701
0.766121	-0.642852	0.0141701
0.866112	-0.50005	0.0141701
0.939787	-0.342054	0.0141701
0.984906	-0.173666	0.0141701
1.0001	0	0.0141701

zone t="K = 10" I =37 J = 1 K = 1
1.00016	0	0.0176269
0.984965	0.173676	0.0176269
0.939843	0.342075	0.0176269
0.866164	0.50008	0.0176269
0.766167	0.64289	0.0176269
0.64289	0.766167	0.0176269
0.50008	0.866164	0.0176269
0.342075	0.939843	0.0176269
0.173676	0.984965	0.0176269
0	1.00016	0.0176269
-0.173676	0.984965	0.0176269
-0.342075	0.939843	0.0176269
-0.50008	0.866164	0.0176269
-0.64289	0.766167	0.0176269
-0.766167	0.64289	0.0176269
-0.866164	0.50008	0.0176269
-0.939843	0.342075	0.0176269
-0.984965	0.173676	0.0176269
-1.00016	0	0.0176269
-0.984965	-0.173676	0.0176269
-0.939843	-0.342075	0.0176269
-0.866164	-0.50008	0.0176269
-0.766167	-0.64289	0.0176269
-0.64289	-0.766167	0.0176269
-0.50008	-0.866164	0.0176269
-0.342075	-0.939843	0.0176269
-0.173676	-0.984965	0.0176269
0	-1.00016	0.0176269
0.173676	-0.984965	0.0176269
0.342075	-0.939843	0.0176269
0.50008	-0.866164	0.0176269
0.64289	-0.766167	0.0176269
0.766167	-0.64289	0.0176269
0.866164	-0.50008	0.0176269
0.939843	-0.342075	0.0176269
0.984965	-0.173676	0.0176269
1.00016	0	0.0176269

zone t="K = 11" I =37 J = 1 K = 1
1.00023	0	0.021498
0.985034	0.173688	0.021498
0.939909	0.342099	0.021498
0.866225	0.500115	0.021498
0.766221	0.642935	0.021498
0.642935	0.766221	0.021498
0.500115	0.866225	0.021498
0.342099	0.939909	0.021498
0.173688	0.985034	0.021498
0	1.00023	0.021498
-0.173688	0.985034	0.021498
-0.342099	0.939909	0.021498
-0.500115	0.866225	0.021498
-0.642935	0.766221	0.021498
-0.766221	0.642935	0.021498
-0.866225	0.500115	0.021498
-0.939909	0.342099	0.021498
-0.985034	0.173688	0.021498
-1.00023	0	0.021498
-0.985034	-0.173688	0.021498
-0.939909	-0.342099	0.021498
-0.866225	-0.500115	0.021498
-0.766221	-0.642935	0.021498
-0.642935	-0.766221	0.021498
-0.500115	-0.866225	0.021498
-0.342099	-0.939909	0.021498
-0.173688	-0.985034	0.021498
0	-1.00023	0.021498
0.173688	-0.985034	0.021498
0.342099	-0.939909	0.021498
0.500115	-0.866225	0.021498
0.642935	-0.766221	0.021498
0.766221	-0.642935	0.021498
0.866225	-0.500115	0.021498
0.939909	-0.342099	0.021498
0.985034	-0.173688	0.021498
1.00023	0	0.021498

zone t="K = 12" I =37 J = 1 K = 1
1.00033	0	0.0257945
0.985133	0.173705	0.0257945
0.940003	0.342133	0.0257945
0.866311	0.500165	0.0257945
0.766297	0.643	0.0257945
0.643	0.766297	0.0257945
0.500165	0.866311	0.0257945
0.342133	0.940003	0.0257945
0.173705	0.985133	0.0257945
0	1.00033	0.0257945
-0.173705	0.985133	0.0257945
-0.342133	0.940003	0.0257945
-0.500165	0.866311	0.0257945
-0.643	0.766297	0.0257945
-0.766297	0.643	0.0257945
-0.866311	0.500165	0.0257945
-0.940003	0.342133	0.0257945
-0.985133	0.173705	0.0257945
-1.00033	0	0.0257945
-0.985133	-0.173705	0.0257945
-0.940003	-0.342133	0.0257945
-0.866311	-0.500165	0.0257945
-0.766297	-0.643	0.0257945
-0.643	-0.766297	0.0257945
-0.500165	-0.866311	0.0257945
-0.342133	-0.940003	0.0257945
-0.173705	-0.985133	0.0257945
0	-1.00033	0.0257945
0.173705	-0.985133	0.0257945
0.342133	-0.940003	0.0257945
0.500165	-0.866311	0.0257945
0.643	-0.766297	0.0257945
0.766297	-0.643	0.0257945
0.866311	-0.500165	0.0257945
0.940003	-0.342133	0.0257945
0.985133	-0.173705	0.0257945
1.00033	0	0.0257945

zone t="K = 13" I =37 J = 1 K = 1
1.00047	0	0.0305274
0.985271	0.17373	0.0305274
0.940134	0.342181	0.0305274
0.866432	0.500235	0.0305274
0.766404	0.64309	0.0305274
0.64309	0.766404	0.0305274
0.500235	0.866432	0.0305274
0.342181	0.940134	0.0305274
0.17373	0.985271	0.0305274
0	1.00047	0.0305274
-0.17373	0.985271	0.0305274
-0.342181	0.940134	0.0305274
-0.500235	0.866432	0.0305274
-0.64309	0.766404	0.0305274
-0.766404	0.64309	0.0305274
-0.866432	0.500235	0.0305274
-0.940134	0.342181	0.0305274
-0.985271	0.17373	0.0305274
-1.00047	0	0.0305274
-0.985271	-0.17373	0.0305274
-0.940134	-0.342181	0.0305274
-0.866432	-0.500235	0.0305274
-0.766404	-0.64309	0.0305274
-0.64309	-0.766404	0.0305274
-0.500235	-0.866432	0.0305274
-0.342181	-0.940134	0.0305274
-0.17373	-0.985271	0.0305274
0	-1.00047	0.0305274
0.17373	-0.985271	0.0305274
0.342181	-0.940134	0.0305274
0.500235	-0.866432	0.0305274
0.64309	-0.766404	0.0305274
0.766404	-0.64309	0.0305274
0.866432	-0.500235	0.0305274
0.940134	-0.342181	0.0305274
0.985271	-0.17373	0.0305274
1.00047	0	0.0305274

zone t="K = 14" I =37 J = 1 K = 1
1.00064	0	0.0357075
0.985438	0.173759	0.0357075
0.940294	0.342239	0.0357075
0.86658	0.50032	0.0357075
0.766535	0.643199	0.0357075
0.643199	0.766535	0.0357075
0.50032	0.86658	0.0357075
0.342239	0.940294	0.0357075
0.173759	0.985438	0.0357075
0	1.00064	0.0357075
-0.173759	0.985438	0.0357075
-0.342239	0.940294	0.0357075
-0.50032	0.86658	0.0357075
-0.643199	0.766535	0.0357075
-0.766535	0.643199	0.0357075
-0.86658	0.50032	0.0357075
-0.940294	0.342239	0.0357075
-0.985438	0.173759	0.0357075
-1.00064	0	0.0357075
-0.985438	-0.173759	0.0357075
-0.940294	-0.342239	0.0357075
-0.86658	-0.50032	0.0357075
-0.766535	-0.643199	0.0357075
-0.643199	-0.766535	0.0357075
-0.50032	-0.86658	0.0357075
-0.342239	-0.940294	0.0357075
-0.173759	-0.985438	0.0357075
0	-1.00064	0.0357075
0.173759	-0.985438	0.0357075
0.342239	-0.940294	0.0357075
0.50032	-0.86658	0.0357075
0.643199	-0.766535	0.0357075
0.766535	-0.643199	0.0357075
0.86658	-0.50032	0.0357075
0.940294	-0.342239	0.0357075
0.985438	-0.173759	0.0357075
1.00064	0	0.0357075

zone t="K = 15" I =37 J = 1 K = 1
1.00086	0	0.0413455
0.985655	0.173798	0.0413455
0.940501	0.342314	0.0413455
0.86677	0.50043	0.0413455
0.766703	0.64334	0.0413455
0.64334	0.766703	0.0413455
0.50043	0.86677	0.0413455
0.342314	0.940501	0.0413455
0.173798	0.985655	0.0413455
0	1.00086	0.0413455
-0.173798	0.985655	0.0413455
-0.342314	0.940501	0.0413455
-0.50043	0.86677	0.0413455
-0.64334	0.766703	0.0413455
-0.766703	0.64334	0.0413455
-0.86677	0.50043	0.0413455
-0.940501	0.342314	0.0413455
-0.985655	0.173798	0.0413455
-1.00086	0	0.0413455
-0.985655	-0.173798	0.0413455
-0.940501	-0.342314	0.0413455
-0.86677	-0.50043	0.0413455
-0.766703	-0.64334	0.0413455
-0.64334	-0.766703	0.0413455
-0.50043	-0.86677	0.0413455
-0.342314	-0.940501	0.0413455
-0.173798	-0.985655	0.0413455
0	-1.00086	0.0413455
0.173798	-0.985655	0.0413455
0.342314	-0.940501	0.0413455
0.50043	-0.86677	0.0413455
0.64334	-0.766703	0.0413455
0.766703	-0.64334	0.0413455
0.86677	-0.50043	0.0413455
0.940501	-0.342314	0.0413455
0.985655	-0.173798	0.0413455
1.00086	0	0.0413455

zone t="K = 16" I =37 J = 1 K = 1
1.00113	0	0.0474517
0.985921	0.173844	0.0474517
0.940754	0.342407	0.0474517
0.867004	0.500565	0.0474517
0.76691	0.643514	0.0474517
0.643514	0.76691	0.0474517
0.500565	0.867004	0.0474517
0.342407	0.940754	0.0474517
0.173844	0.985921	0.0474517
0	1.00113	0.0474517
-0.173844	0.985921	0.0474517
-0.342407	0.940754	0.0474517
-0.500565	0.867004	0.0474517
-0.643514	0.76691	0.0474517
-0.76691	0.643514	0.0474517
-0.867004	0.500565	0.0474517
-0.940754	0.342407	0.0474517
-0.985921	0.173844	0.0474517
-1.00113	0	0.0474517
-0.985921	-0.173844	0.0474517
-0.940754	-0.342407	0.0474517
-0.867004	-0.500565	0.0474517
-0.76691	-0.643514	0.0474517
-0.643514	-0.76691	0.0474517
-0.500565	-0.867004	0.0474517
-0.342407	-0.940754	0.0474517
-0.173844	-0.985921	0.0474517
0	-1.00113	0.0474517
0.173844	-0.985921	0.0474517
0.342407	-0.940754	0.0474517
0.500565	-0.867004	0.0474517
0.643514	-0.76691	0.0474517
0.76691	-0.643514	0.0474517
0.867004	-0.500565	0.0474517
0.940754	-0.342407	0.0474517
0.985921	-0.173844	0.0474517
1.00113	0	0.0474517

zone t="K = 17" I =37 J = 1 K = 1
1.00146	0	0.0540363
0.986246	0.173902	0.0540363
0.941065	0.342519	0.0540363
0.86729	0.50073	0.0540363
0.767163	0.643726	0.0540363
0.643726	0.767163	0.0540363
0.50073	0.86729	0.0540363
0.342519	0.941065	0.0540363
0.173902	0.986246	0.0540363
0	1.00146	0.0540363
-0.173902	0.986246	0.0540363
-0.342519	0.941065	0.0540363
-0.50073	0.86729	0.0540363
-0.643726	0.767163	0.0540363
-0.767163	0.643726	0.0540363
-0.86729	0.50073	0.0540363
-0.941065	0.342519	0.0540363
-0.986246	0.173902	0.0540363
-1.00146	0	0.0540363
-0.986246	-0.173902	0.0540363
-0.941065	-0.342519	0.0540363
-0.86729	-0.50073	0.0540363
-0.767163	-0.643726	0.0540363
-0.643726	-0.767163	0.0540363
-0.50073	-0.86729	0.0540363
-0.342519	-0.941065	0.0540363
-0.173902	-0.986246	0.0540363
0	-1.00146	0.0540363
0.173902	-0.986246	0.0540363
0.342519	-0.941065	0.0540363
0.50073	-0.86729	0.0540363
0.643726	-0.767163	0.0540363
0.767163	-0.643726	0.0540363
0.86729	-0.50073	0.0540363
0.941065	-0.342519	0.0540363
0.986246	-0.173902	0.0540363
1.00146	0	0.0540363

zone t="K = 18" I =37 J = 1 K = 1
1.00187	0	0.0611095
0.986649	0.173973	0.0611095
0.94145	0.34266	0.0611095
0.867645	0.500935	0.0611095
0.767477	0.64399	0.0611095
0.64399	0.767477	0.0611095
0.500935	0.867645	0.0611095
0.34266	0.94145	0.0611095
0.173973	0.986649	0.0611095
0	1.00187	0.0611095
-0.173973	0.986649	0.0611095
-0.34266	0.94145	0.0611095
-0.500935	0.867645	0.0611095
-0.64399	0.767477	0.0611095
-0.767477	0.64399	0.0611095
-0.867645	0.500935	0.0611095
-0.94145	0.34266	0.0611095
-0.986649	0.173973	0.0611095
-1.00187	0	0.0611095
-0.986649	-0.173973	0.0611095
-0.94145	-0.34266	0.0611095
-0.867645	-0.500935	0.0611095
-0.767477	-0.64399	0.0611095
-0.64399	-0.767477	0.0611095
-0.500935	-0.867645	0.0611095
-0.34266	-0.94145	0.0611095
-0.173973	-0.986649	0.0611095
0	-1.00187	0.0611095
0.173973	-0.986649	0.0611095
0.34266	-0.94145	0.0611095
0.500935	-0.867645	0.0611095
0.64399	-0.767477	0.0611095
0.767477	-0.64399	0.0611095
0.867645	-0.500935	0.0611095
0.94145	-0.34266	0.0611095
0.986649	-0.173973	0.0611095
1.00187	0	0.0611095

zone t="K = 19" I =37 J = 1 K = 1
1.00236	0	0.0686809
0.987132	0.174058	0.0686809
0.94191	0.342827	0.0686809
0.868069	0.50118	0.0686809
0.767852	0.644305	0.0686809
0.644305	0.767852	0.0686809
0.50118	0.868069	0.0686809
0.342827	0.94191	0.0686809
0.174058	0.987132	0.0686809
0	1.00236	0.0686809
-0.174058	0.987132	0.0686809
-0.342827	0.94191	0.0686809
-0.50118	0.868069	0.0686809
-0.644305	0.767852	0.0686809
-0.767852	0.644305	0.0686809
-0.868069	0.50118	0.0686809
-0.94191	0.342827	0.0686809
-0.987132	0.174058	0.0686809
-1.00236	0	0.0686809
-0.987132	-0.174058	0.0686809
-0.94191	-0.342827	0.0686809
-0.868069	-0.50118	0.0686809
-0.767852	-0.644305	0.0686809
-0.644305	-0.767852	0.0686809
-0.50118	-0.868069	0.0686809
-0.342827	-0.94191	0.0686809
-0.174058	-0.987132	0.0686809
0	-1.00236	0.0686809
0.174058	-0.987132	0.0686809
0.342827	-0.94191	0.0686809
0.50118	-0.868069	0.0686809
0.644305	-0.767852	0.0686809
0.767852	-0.644305	0.0686809
0.868069	-0.50118	0.0686809
0.94191	-0.342827	0.0686809
0.987132	-0.174058	0.0686809
1.00236	0	0.0686809

zone t="K = 20" I =37 J = 1 K = 1
1.00295	0	0.0767604
0.987713	0.17416	0.0767604
0.942465	0.343029	0.0767604
0.86858	0.501475	0.0767604
0.768304	0.644684	0.0767604
0.644684	0.768304	0.0767604
0.501475	0.86858	0.0767604
0.343029	0.942465	0.0767604
0.17416	0.987713	0.0767604
0	1.00295	0.0767604
-0.17416	0.987713	0.0767604
-0.343029	0.942465	0.0767604
-0.501475	0.86858	0.0767604
-0.644684	0.768304	0.0767604
-0.768304	0.644684	0.0767604
-0.86858	0.501475	0.0767604
-0.942465	0.343029	0.0767604
-0.987713	0.17416	0.0767604
-1.00295	0	0.0767604
-0.987713	-0.17416	0.0767604
-0.942465	-0.343029	0.0767604
-0.86858	-0.501475	0.0767604
-0.768304	-0.644684	0.0767604
-0.644684	-0.768304	0.0767604
-0.501475	-0.86858	0.0767604
-0.343029	-0.942465	0.0767604
-0.17416	-0.987713	0.0767604
0	-1.00295	0.0767604
0.17416	-0.987713	0.0767604
0.343029	-0.942465	0.0767604
0.501475	-0.86858	0.0767604
0.644684	-0.768304	0.0767604
0.768304	-0.644684	0.0767604
0.86858	-0.501475	0.0767604
0.942465	-0.343029	0.0767604
0.987713	-0.17416	0.0767604
1.00295	0	0.0767604

zone t="K = 21" I =37 J = 1 K = 1
1.00365	0	0.0853577
0.988402	0.174282	0.0853577
0.943122	0.343269	0.0853577
0.869186	0.501825	0.0853577
0.768841	0.645134	0.0853577
0.645134	0.768841	0.0853577
0.501825	0.869186	0.0853577
0.343269	0.943122	0.0853577
0.174282	0.988402	0.0853577
0	1.00365	0.0853577
-0.174282	0.988402	0.0853577
-0.343269	0.943122	0.0853577
-0.501825	0.869186	0.0853577
-0.645134	0.768841	0.0853577
-0.768841	0.645134	0.0853577
-0.869186	0.501825	0.0853577
-0.943122	0.343269	0.0853577
-0.988402	0.174282	0.0853577
-1.00365	0	0.0853577
-0.988402	-0.174282	0.0853577
-0.943122	-0.343269	0.0853577
-0.869186	-0.501825	0.0853577
-0.768841	-0.645134	0.0853577
-0.645134	-0.768841	0.0853577
-0.501825	-0.869186	0.0853577
-0.343269	-0.943122	0.0853577
-0.174282	-0.988402	0.0853577
0	-1.00365	0.0853577
0.174282	-0.988402	0.0853577
0.343269	-0.943122	0.0853577
0.501825	-0.869186	0.0853577
0.645134	-0.768841	0.0853577
0.768841	-0.645134	0.0853577
0.869186	-0.501825	0.0853577
0.943122	-0.343269	0.0853577
0.988402	-0.174282	0.0853577
1.00365	0	0.0853577

zone t="K = 22" I =37 J = 1 K = 1
1.00403	0	0.0897043
0.988777	0.174348	0.0897043
0.94348	0.343398	0.0897043
0.869515	0.502015	0.0897043
0.769132	0.645378	0.0897043
0.645378	0.769132	0.0897043
0.502015	0.869515	0.0897043
0.343398	0.94348	0.0897043
0.174348	0.988777	0.0897043
0	1.00403	0.0897043
-0.174348	0.988777	0.0897043
-0.343398	0.94348	0.0897043
-0.502015	0.869515	0.0897043
-0.645378	0.769132	0.0897043
-0.769132	0.645378	0.0897043
-0.869515	0.502015	0.0897043
-0.94348	0.343398	0.0897043
-0.988777	0.174348	0.0897043
-1.00403	0	0.0897043
-0.988777	-0.174348	0.0897043
-0.94348	-0.343398	0.0897043
-0.869515	-0.502015	0.0897043
-0.769132	-0.645378	0.0897043
-0.645378	-0.769132	0.0897043
-0.502015	-0.869515	0.0897043
-0.343398	-0.94348	0.0897043
-0.174348	-0.988777	0.0897043
0	-1.00403	0.0897043
0.174348	-0.988777	0.0897043
0.343398	-0.94348	0.0897043
0.502015	-0.869515	0.0897043
0.645378	-0.769132	0.0897043
0.769132	-0.645378	0.0897043
0.869515	-0.502015	0.0897043
0.94348	-0.343398	0.0897043
0.988777	-0.174348	0.0897043
1.00403	0	0.0897043

zone t="K = 23" I =37 J = 1 K = 1
1.00447	0	0.094483
0.98921	0.174424	0.094483
0.943893	0.343549	0.094483
0.869897	0.502235	0.094483
0.769469	0.645661	0.094483
0.645661	0.769469	0.094483
0.502235	0.869897	0.094483
0.343549	0.943893	0.094483
0.174424	0.98921	0.094483
0	1.00447	0.094483
-0.174424	0.98921	0.094483
-0.343549	0.943893	0.094483
-0.502235	0.869897	0.094483
-0.645661	0.769469	0.094483
-0.769469	0.645661	0.094483
-0.869897	0.502235	0.094483
-0.943893	0.343549	0.094483
-0.98921	0.174424	0.094483
-1.00447	0	0.094483
-0.98921	-0.174424	0.094483
-0.943893	-0.343549	0.094483
-0.869897	-0.502235	0.094483
-0.769469	-0.645661	0.094483
-0.645661	-0.769469	0.094483
-0.502235	-0.869897	0.094483
-0.343549	-0.943893	0.094483
-0.174424	-0.98921	0.094483
0	-1.00447	0.094483
0.174424	-0.98921	0.094483
0.343549	-0.943893	0.094483
0.502235	-0.869897	0.094483
0.645661	-0.769469	0.094483
0.769469	-0.645661	0.094483
0.869897	-0.502235	0.094483
0.943893	-0.343549	0.094483
0.98921	-0.174424	0.094483
1.00447	0	0.094483

zone t="K = 24" I =37 J = 1 K = 1
1.0049	0	0.0988258
0.989633	0.174499	0.0988258
0.944297	0.343696	0.0988258
0.870269	0.50245	0.0988258
0.769798	0.645937	0.0988258
0.645937	0.769798	0.0988258
0.50245	0.870269	0.0988258
0.343696	0.944297	0.0988258
0.174499	0.989633	0.0988258
0	1.0049	0.0988258
-0.174499	0.989633	0.0988258
-0.343696	0.944297	0.0988258
-0.50245	0.870269	0.0988258
-0.645937	0.769798	0.0988258
-0.769798	0.645937	0.0988258
-0.870269	0.50245	0.0988258
-0.944297	0.343696	0.0988258
-0.989633	0.174499	0.0988258
-1.0049	0	0.0988258
-0.989633	-0.174499	0.0988258
-0.944297	-0.343696	0.0988258
-0.870269	-0.50245	0.0988258
-0.769798	-0.645937	0.0988258
-0.645937	-0.769798	0.0988258
-0.50245	-0.870269	0.0988258
-0.343696	-0.944297	0.0988258
-0.174499	-0.989633	0.0988258
0	-1.0049	0.0988258
0.174499	-0.989633	0.0988258
0.343696	-0.944297	0.0988258
0.50245	-0.870269	0.0988258
0.645937	-0.769798	0.0988258
0.769798	-0.645937	0.0988258
0.870269	-0.50245	0.0988258
0.944297	-0.343696	0.0988258
0.989633	-0.174499	0.0988258
1.0049	0	0.0988258

zone t="K = 25" I =37 J = 1 K = 1
1.00544	0	0.104146
0.990165	0.174593	0.104146
0.944805	0.343881	0.104146
0.870737	0.50272	0.104146
0.770212	0.646284	0.104146
0.646284	0.770212	0.104146
0.50272	0.870737	0.104146
0.343881	0.944805	0.104146
0.174593	0.990165	0.104146
0	1.00544	0.104146
-0.174593	0.990165	0.104146
-0.343881	0.944805	0.104146
-0.50272	0.870737	0.104146
-0.646284	0.770212	0.104146
-0.770212	0.646284	0.104146
-0.870737	0.50272	0.104146
-0.944805	0.343881	0.104146
-0.990165	0.174593	0.104146
-1.00544	0	0.104146
-0.990165	-0.174593	0.104146
-0.944805	-0.343881	0.104146
-0.870737	-0.50272	0.104146
-0.770212	-0.646284	0.104146
-0.646284	-0.770212	0.104146
-0.50272	-0.870737	0.104146
-0.343881	-0.944805	0.104146
-0.174593	-0.990165	0.104146
0	-1.00544	0.104146
0.174593	-0.990165	0.104146
0.343881	-0.944805	0.104146
0.50272	-0.870737	0.104146
0.646284	-0.770212	0.104146
0.770212	-0.646284	0.104146
0.870737	-0.50272	0.104146
0.944805	-0.343881	0.104146
0.990165	-0.174593	0.104146
1.00544	0	0.104146

zone t="K = 26" I =37 J = 1 K = 1
1.0059	0	0.108484
0.990618	0.174673	0.108484
0.945237	0.344038	0.108484
0.871135	0.50295	0.108484
0.770564	0.64658	0.108484
0.64658	0.770564	0.108484
0.50295	0.871135	0.108484
0.344038	0.945237	0.108484
0.174673	0.990618	0.108484
0	1.0059	0.108484
-0.174673	0.990618	0.108484
-0.344038	0.945237	0.108484
-0.50295	0.871135	0.108484
-0.64658	0.770564	0.108484
-0.770564	0.64658	0.108484
-0.871135	0.50295	0.108484
-0.945237	0.344038	0.108484
-0.990618	0.174673	0.108484
-1.0059	0	0.108484
-0.990618	-0.174673	0.108484
-0.945237	-0.344038	0.108484
-0.871135	-0.50295	0.108484
-0.770564	-0.64658	0.108484
-0.64658	-0.770564	0.108484
-0.50295	-0.871135	0.108484
-0.344038	-0.945237	0.108484
-0.174673	-0.990618	0.108484
0	-1.0059	0.108484
0.174673	-0.990618	0.108484
0.344038	-0.945237	0.108484
0.50295	-0.871135	0.108484
0.64658	-0.770564	0.108484
0.770564	-0.64658	0.108484
0.871135	-0.50295	0.108484
0.945237	-0.344038	0.108484
0.990618	-0.174673	0.108484
1.0059	0	0.108484

zone t="K = 27" I =37 J = 1 K = 1
1.00656	0	0.114355
0.991268	0.174787	0.114355
0.945857	0.344264	0.114355
0.871707	0.50328	0.114355
0.77107	0.647004	0.114355
0.647004	0.77107	0.114355
0.50328	0.871707	0.114355
0.344264	0.945857	0.114355
0.174787	0.991268	0.114355
0	1.00656	0.114355
-0.174787	0.991268	0.114355
-0.344264	0.945857	0.114355
-0.50328	0.871707	0.114355
-0.647004	0.77107	0.114355
-0.77107	0.647004	0.114355
-0.871707	0.50328	0.114355
-0.945857	0.344264	0.114355
-0.991268	0.174787	0.114355
-1.00656	0	0.114355
-0.991268	-0.174787	0.114355
-0.945857	-0.344264	0.114355
-0.871707	-0.50328	0.114355
-0.77107	-0.647004	0.114355
-0.647004	-0.77107	0.114355
-0.50328	-0.871707	0.114355
-0.344264	-0.945857	0.114355
-0.174787	-0.991268	0.114355
0	-1.00656	0.114355
0.174787	-0.991268	0.114355
0.344264	-0.945857	0.114355
0.50328	-0.871707	0.114355
0.647004	-0.77107	0.114355
0.77107	-0.647004	0.114355