VARIABLES = "X(in)","Y(in)","Z(in)","R(in)","P(psia)","PT(psia)","T(R)","TT(R)","RHO(lbm/ft3)","Mach","Velocity(ft/s)","Theta(deg)","Psi(deg)","I","K","BodyFlag"
TITLE = "Volume Mesh Plot"
text  x=5  y=93  t="Characteristic Mesh Plot" 
zone t="All data" I = 162 J = 1 K = 15
-0.142857	1.74944e-017	0	0.142857	1000	2135.14	530	658.26	5.09176	1.1	1241.53	0	0	5	0	0
-0.142857	0	0.000168491	0.142857	1000	2135.14	530	658.26	5.09176	1.1	1241.53	0	0	5	1	0
-0.142857	0	0.000675054	0.142857	1000	2135.14	530	658.26	5.09176	1.1	1241.53	0	0	5	2	0
-0.142857	0	0.0015229	0.142857	1000	2135.14	530	658.26	5.09176	1.1	1241.53	0	0	5	3	0
-0.142857	0	0.00271722	0.142857	1000	2135.14	530	658.26	5.09176	1.1	1241.53	0	0	5	4	0
-0.142857	0	0.00426488	0.142857	1000	2135.14	530	658.26	5.09176	1.1	1241.53	3.24029e-006	4.77083e-015	5	5	0
-0.142857	0	0.00617421	0.142857	1000	2135.14	530	658.26	5.09176	1.1	1241.53	9.84393e-006	3.97565e-016	5	6	0
-0.142857	0	0.00845462	0.142857	1000	2135.14	530	658.26	5.09176	1.1	1241.53	1.41849e-005	-6.36112e-015	5	7	0
-0.142857	0	0.0111163	0.142857	1000	2135.14	530	658.26	5.09176	1.1	1241.53	1.4754e-005	2.78298e-015	5	8	0
-0.142857	0	0.0141701	0.142857	1000	2135.14	530	658.26	5.09176	1.1	1241.53	1.01489e-005	-9.54166e-015	5	9	0
-0.142857	0	0.0176269	0.142857	1000	2135.14	530	658.26	5.09176	1.1	1241.53	4.60392e-006	-2.57705e-021	5	10	0
-0.142857	0	0.021498	0.142857	1000	2135.14	530	658.26	5.09176	1.1	1241.53	-1.83114e-005	-4.37326e-015	5	11	0
-0.142857	0	0.0257945	0.142857	999.998	2135.14	530	658.26	5.09175	1.1	1241.53	-5.86983e-005	5.16843e-015	5	12	0
-0.142857	0	0.0305274	0.142857	999.997	2135.14	530	658.26	5.09175	1.1	1241.53	-0.000103128	7.95141e-015	5	13	0
-0.142857	0	0.0357075	0.142857	999.997	2135.14	529.999	658.26	5.09174	1.1	1241.53	-0.000158552	9.54179e-015	5	14	0
-0.142857	0	0.0413455	0.142857	999.997	2135.14	530	658.26	5.09175	1.1	1241.53	-0.000213833	-4.77093e-015	5	15	0
-0.142857	0	0.0474517	0.142857	1000	2135.14	530	658.26	5.09177	1.1	1241.53	-0.000241118	-2.90229e-014	5	16	0
-0.142857	0	0.0540363	0.142857	1000.01	2135.14	530.002	658.26	5.09181	1.09999	1241.52	-0.000222843	-2.74323e-014	5	17	0
-0.142857	0	0.0611095	0.142857	1000.03	2135.14	530.005	658.26	5.09188	1.09997	1241.5	-0.000136658	-1.43124e-014	5	18	0
-0.142857	0	0.0686809	0.142857	1000.06	2135.14	530.01	658.26	5.09199	1.09995	1241.48	-3.07198e-006	-3.18055e-014	5	19	0
-0.142857	0	0.0767604	0.142857	1000.1	2135.14	530.015	658.26	5.09213	1.09992	1241.45	0.000111379	-1.90833e-014	5	20	0
-0.142857	0	0.0853577	0.142857	1000.14	2135.14	530.022	658.26	5.09228	1.09988	1241.42	8.53436e-005	-2.34566e-014	5	21	0
-0.142857	0	0.0897043	0.142857	1000.16	2135.14	530.025	658.26	5.09235	1.09987	1241.41	-0.000152564	-2.98178e-014	5	22	0
-0.142857	0	0.094483	0.142857	1000.18	2135.14	530.028	658.26	5.09243	1.09985	1241.39	-0.000541549	-3.81663e-014	5	23	0
-0.142857	0	0.0988258	0.142857	1000.2	2135.14	530.03	658.26	5.09248	1.09984	1241.38	-0.00104908	-2.38535e-014	5	24	0
-0.142857	0	0.104146	0.142857	1000.21	2135.14	530.032	658.26	5.09252	1.09983	1241.37	-0.00183771	9.1446e-015	5	25	0
-0.142858	0	0.108484	0.142858	1000.22	2135.14	530.033	658.26	5.09254	1.09983	1241.37	-0.00269469	1.63019e-014	5	26	0
-0.142858	0	0.114355	0.142858	1000.21	2135.14	530.032	658.26	5.09253	1.09983	1241.37	-0.00400901	1.54989e-014	5	27	0
-0.142858	0	0.118689	0.142858	1000.21	2135.14	530.031	658.26	5.09251	1.09983	1241.38	-0.00520796	9.53551e-015	5	28	0
-0.142859	0	0.125123	0.142859	1000.18	2135.14	530.028	658.26	5.09243	1.09985	1241.39	-0.00707472	1.59027e-014	5	29	0
-0.14286	0	0.129451	0.14286	1000.17	2135.14	530.026	658.26	5.09237	1.09986	1241.4	-0.00854881	2.54401e-014	5	30	0
-0.142861	0	0.136458	0.142861	1000.13	2135.14	530.02	658.26	5.09223	1.09989	1241.43	-0.0108041	4.29328e-014	5	31	0
-0.142862	0	0.14078	0.142862	1000.12	2135.14	530.018	658.26	5.09218	1.09991	1241.44	-0.0123306	6.36086e-014	5	32	0
-0.142863	0	0.148373	0.142863	1000.08	2135.14	530.012	658.26	5.09205	1.09993	1241.47	-0.0144843	6.36131e-014	5	33	0
-0.142865	0	0.152687	0.142865	1000.08	2135.14	530.013	658.26	5.09206	1.09993	1241.47	-0.0157243	7.75182e-014	5	34	0
-0.142867	0	0.160878	0.142867	1000.09	2135.14	530.014	658.26	5.09209	1.09993	1241.46	-0.0168865	6.19963e-014	5	35	0
-0.142868	0	0.165183	0.142868	1000.14	2135.14	530.021	658.26	5.09226	1.09989	1241.43	-0.0173412	3.65429e-014	5	36	0
-0.142869	0	0.169485	0.142869	1000.21	2135.14	530.032	658.26	5.09252	1.09983	1241.37	-0.0174012	3.33976e-014	5	37	0
-0.142871	0	0.173986	0.142871	1000.31	2135.14	530.047	658.26	5.0929	1.09975	1241.3	-0.0169645	1.90607e-014	5	38	0
-0.142872	0	0.178281	0.142872	1000.44	2135.14	530.067	658.26	5.09337	1.09964	1241.2	-0.0160665	1.75128e-014	5	39	0
-0.142873	0	0.182573	0.142873	1000.61	2135.14	530.092	658.26	5.09397	1.09951	1241.08	-0.0146399	1.27258e-014	5	40	0
-0.142874	0	0.187709	0.142874	1000.84	2135.14	530.128	658.26	5.09483	1.09932	1240.91	-0.0120598	-9.92181e-015	5	41	0
-0.142875	0	0.191993	0.142875	1001.09	2135.14	530.165	658.26	5.09573	1.09912	1240.73	-0.0094005	-3.17721e-015	5	42	0
-0.142876	0	0.196273	0.142876	1001.38	2135.14	530.209	658.26	5.09678	1.09889	1240.52	-0.0061641	-7.55438e-015	5	43	0
-0.142876	0	0.202061	0.142876	1001.82	2135.14	530.276	658.26	5.09838	1.09853	1240.19	-0.00053039	-5.16792e-015	5	44	0
-0.142876	0	0.206333	0.142876	1002.21	2135.14	530.335	658.26	5.0998	1.09822	1239.91	0.00399048	-6.36196e-015	5	45	0
-0.142876	0	0.2106	0.142876	1002.65	2135.14	530.4	658.26	5.10138	1.09787	1239.59	0.00898736	1.9081e-014	5	46	0
-0.142874	0	0.217058	0.142874	1003.36	2135.14	530.508	658.26	5.10396	1.0973	1239.07	0.0179991	5.40892e-014	5	47	0
-0.142872	0	0.221315	0.142872	1003.9	2135.14	530.589	658.26	5.10592	1.09686	1238.67	0.0239003	2.22112e-014	5	48	0
-0.14287	0	0.225568	0.14287	1004.48	2135.14	530.677	658.26	5.10803	1.09639	1238.25	0.0299944	2.38415e-014	5	49	0
-0.142866	0	0.232715	0.142866	1005.48	2135.14	530.829	658.26	5.11168	1.09559	1237.51	0.0414258	4.77454e-014	5	50	0
-0.142863	0	0.236956	0.142863	1006.14	2135.14	530.928	658.26	5.11408	1.09505	1237.03	0.0474601	6.84077e-014	5	51	0
-0.142859	0	0.241193	0.142859	1006.83	2135.14	531.031	658.26	5.11656	1.0945	1236.53	0.0532126	3.61511e-014	5	52	0
-0.142851	0	0.249049	0.142851	1008.07	2135.14	531.219	658.26	5.12108	1.09351	1235.62	0.0640555	7.00444e-014	5	53	0
-0.142846	0	0.253272	0.142846	1008.77	2135.14	531.324	658.26	5.12362	1.09294	1235.1	0.0681615	1.0866e-013	5	54	0
-0.142841	0	0.257491	0.142841	1009.47	2135.14	531.429	658.26	5.12614	1.09238	1234.59	0.0713913	1.04483e-013	5	55	0
-0.142836	0	0.261705	0.142836	1010.14	2135.14	531.53	658.26	5.12859	1.09184	1234.1	0.0735896	1.39701e-013	5	56	0
-0.14283	0	0.26608	0.14283	1010.81	2135.14	531.631	658.26	5.13101	1.09131	1233.61	0.0746529	1.5304e-013	5	57	0
-0.142824	0	0.270284	0.142824	1011.41	2135.14	531.722	658.26	5.1332	1.09082	1233.17	0.0742977	1.49408e-013	5	58	0
-0.142819	0	0.274482	0.142819	1011.97	2135.14	531.804	658.26	5.1352	1.09038	1232.77	0.0724911	1.33448e-013	5	59	0
-0.142814	0	0.278675	0.142814	1012.45	2135.14	531.877	658.26	5.13696	1.08999	1232.41	0.0691179	1.39816e-013	5	60	0
-0.14281	0	0.281606	0.14281	1012.76	2135.14	531.923	658.26	5.13807	1.08975	1232.19	0.0656553	1.31982e-013	5	61	0
-0.142793	0	0.306603	0.142793	1012.77	2135.14	531.925	658.26	5.13811	1.08974	1232.18	0.0146961	2.63949e-013	5	62	0
-0.142869	0	0.346671	0.142869	1002.31	2135.14	530.35	658.26	5.10017	1.09814	1239.83	-0.232004	3.24757e-013	5	63	0
-0.14325	0	0.396511	0.14325	970.693	2135.14	525.515	658.26	4.98471	1.12383	1263.05	-0.643342	3.71841e-013	5	64	0
-0.144049	0	0.454211	0.144049	916.655	2135.14	516.985	658.26	4.78489	1.16891	1303	-0.944908	4.44584e-014	5	65	0
-0.145249	0	0.518565	0.145249	851.672	2135.14	506.237	658.26	4.54006	1.22536	1351.66	-1.19154	2.30471e-013	5	66	0
-0.146853	0	0.588694	0.146853	784.957	2135.14	494.575	658.26	4.28309	1.28639	1402.54	-1.42899	2.46804e-013	5	67	0
-0.148884	0	0.663913	0.148884	718.689	2135.14	482.267	658.26	4.02158	1.35079	1454.32	-1.66293	2.30192e-013	5	68	0
-0.151369	0	0.743662	0.151369	653.337	2135.14	469.308	658.26	3.75684	1.41883	1506.91	-1.90783	1.02504e-013	5	69	0
-0.154354	0	0.827483	0.154354	589.512	2135.14	455.724	658.26	3.49087	1.49068	1560.13	-2.17042	1.05852e-013	5	70	0
-0.15788	0	0.914994	0.15788	527.961	2135.14	441.59	658.26	3.22646	1.5663	1613.65	-2.44435	7.5233e-014	5	71	0
-0.161975	0	1.00588	0.161975	469.507	2135.14	427.031	658.26	2.96706	1.64542	1666.99	-2.71583	6.49553e-014	5	72	0
-0.166644	0	1.09987	0.166644	414.962	2135.14	412.226	658.26	2.71654	1.72749	1719.53	-2.97157	4.252e-014	5	73	0
-0.17187	0	1.19676	0.17187	364.95	2135.14	397.374	658.26	2.47843	1.8118	1770.66	-3.20283	2.97503e-014	5	74	0
-0.177621	0	1.29638	0.177621	319.825	2135.14	382.668	658.26	2.25545	1.89761	1819.89	-3.40571	2.54277e-014	5	75	0
-0.183859	0	1.39858	0.183859	279.661	2135.14	368.274	658.26	2.0493	1.98421	1866.81	-3.57971	2.62729e-014	5	76	0
-0.190543	0	1.50327	0.190543	244.286	2135.14	354.315	658.26	1.8606	2.07104	1911.21	-3.72637	1.93709e-014	5	77	0
-0.197632	0	1.61036	0.197632	213.38	2135.14	340.883	658.26	1.68924	2.15759	1952.98	-3.848	2.94326e-014	5	78	0
-0.205089	0	1.71981	0.205089	186.528	2135.14	328.033	658.26	1.53451	2.24354	1992.13	-3.94718	3.84406e-014	5	79	0
-0.21288	0	1.8316	0.21288	163.284	2135.14	315.793	658.26	1.39535	2.32859	2028.71	-4.0264	3.08046e-014	5	80	0
-0.220976	0	1.94574	0.220976	143.202	2135.14	304.172	658.26	1.2705	2.41258	2062.85	-4.08787	4.22338e-014	5	81	0
-0.229352	0	2.06229	0.229352	125.864	2135.14	293.16	658.26	1.15862	2.49539	2094.68	-4.13352	5.62857e-014	5	82	0
-0.237978	0	2.1812	0.237978	110.906	2135.14	282.752	658.26	1.05851	2.57686	2124.32	-4.16491	4.43205e-014	5	83	0
-0.246824	0	2.3024	0.246824	98.0035	2135.14	272.935	658.26	0.969005	2.65686	2151.91	-4.18338	2.73955e-014	5	84	0
-0.25586	0	2.42585	0.25586	86.8663	2135.14	263.688	658.26	0.889005	2.73529	2177.58	-4.19004	2.9672e-014	5	85	0
-0.265064	0	2.55154	0.265064	77.2406	2135.14	254.987	658.26	0.817469	2.81207	2201.46	-4.18571	3.10488e-014	5	86	0
-0.274407	0	2.67943	0.274407	68.9102	2135.14	246.807	658.26	0.753477	2.88713	2223.68	-4.17101	3.08655e-014	5	87	0
-0.283864	0	2.8095	0.283864	61.6888	2135.14	239.123	658.26	0.696193	2.96042	2244.34	-4.14636	1.99086e-014	5	88	0
-0.293413	0	2.94176	0.293413	55.4163	2135.14	231.908	658.26	0.64486	3.03188	2263.58	-4.11201	2.46205e-014	5	89	0
-0.303025	0	3.07619	0.303025	49.958	2135.14	225.138	658.26	0.598825	3.10146	2281.48	-4.06816	1.3706e-014	5	90	0
-0.312668	0	3.21267	0.312668	45.2029	2135.14	218.795	658.26	0.557535	3.16904	2298.12	-4.01496	1.30964e-014	5	91	0
-0.322323	0	3.35131	0.322323	41.0486	2135.14	212.851	658.26	0.520434	3.23465	2313.61	-3.95243	1.08918e-014	5	92	0
-0.331964	0	3.49213	0.331964	37.4116	2135.14	207.283	658.26	0.487065	3.29823	2328.03	-3.88061	9.80529e-015	5	93	0
-0.341555	0	3.63502	0.341555	34.2244	2135.14	202.076	658.26	0.457051	3.35968	2341.43	-3.79957	-3.44583e-015	5	94	0
-0.351065	0	3.77993	0.351065	31.4272	2135.14	197.213	658.26	0.430045	3.41893	2353.88	-3.70939	-1.66097e-014	5	95	0
-0.360477	0	3.92709	0.360477	28.9642	2135.14	192.667	658.26	0.405693	3.47604	2365.45	-3.60997	-2.31736e-014	5	96	0
-0.369742	0	4.07619	0.369742	26.7972	2135.14	188.434	658.26	0.383773	3.53081	2376.18	-3.5016	-2.50517e-014	5	97	0
-0.378839	0	4.22739	0.378839	24.8855	2135.14	184.491	658.26	0.364012	3.58328	2386.13	-3.38433	-2.78577e-014	5	98	0
-0.387742	0	4.3808	0.387742	23.1962	2135.14	180.822	658.26	0.346185	3.63343	2395.35	-3.25825	-2.47596e-014	5	99	0
-0.396395	0	4.53601	0.396395	21.7058	2135.14	177.424	658.26	0.330147	3.6811	2403.86	-3.12398	-4.00462e-014	5	100	0
-0.404802	0	4.69366	0.404802	20.3843	2135.14	174.268	658.26	0.315662	3.72645	2411.74	-2.98134	-5.00606e-014	5	101	0
-0.412884	0	4.85284	0.412884	19.2189	2135.14	171.361	658.26	0.302663	3.76919	2418.97	-2.83161	-5.44491e-014	5	102	0
-0.420664	0	5.01462	0.420664	18.1837	2135.14	168.672	658.26	0.290927	3.8096	2425.64	-2.67439	-3.6521e-014	5	103	0
-0.428055	0	5.17783	0.428055	17.271	2135.14	166.208	658.26	0.280419	3.84737	2431.74	-2.51148	-2.94034e-014	5	104	0
-0.435085	0	5.34371	0.435085	16.4602	2135.14	163.94	658.26	0.270952	3.88281	2437.33	-2.34249	-3.05086e-014	5	105	0
-0.441672	0	5.5109	0.441672	15.7465	2135.14	161.877	658.26	0.262507	3.91562	2442.41	-2.16971	-1.24998e-014	5	106	0
-0.447844	0	5.68072	0.447844	15.1139	2135.14	159.992	658.26	0.254931	3.9461	2447.05	-1.99284	-3.98134e-014	5	107	0
-0.453548	0	5.85238	0.453548	14.5569	2135.14	158.285	658.26	0.248185	3.97411	2451.24	-1.81382	-5.0203e-014	5	108	0
-0.458771	0	6.02593	0.458771	14.0675	2135.14	156.746	658.26	0.242196	3.99971	2455.01	-1.63383	-7.85013e-014	5	109	0
-0.463504	0	6.20153	0.463504	13.6384	2135.14	155.364	658.26	0.236895	4.02298	2458.39	-1.45399	-9.38115e-014	5	110	0
-0.467734	0	6.37906	0.467734	13.264	2135.14	154.134	658.26	0.232232	4.04395	2461.39	-1.27579	-9.79871e-014	5	111	0
-0.471459	0	6.55869	0.471459	12.9388	2135.14	153.044	658.26	0.22815	4.0627	2464.05	-1.10042	-1.21102e-013	5	112	0
-0.474674	0	6.74013	0.474674	12.6587	2135.14	152.09	658.26	0.224612	4.07927	2466.37	-0.929551	-1.06635e-013	5	113	0
-0.477383	0	6.92336	0.477383	12.4197	2135.14	151.264	658.26	0.221574	4.09373	2468.39	-0.764552	-1.00869e-013	5	114	0
-0.479602	0	7.1088	0.479602	12.2175	2135.14	150.557	658.26	0.218992	4.1062	2470.11	-0.606381	-1.12338e-013	5	115	0
-0.481339	0	7.29602	0.481339	12.0497	2135.14	149.963	658.26	0.216838	4.11673	2471.55	-0.456678	-1.23758e-013	5	116	0
-0.482615	0	7.48513	0.482615	11.9131	2135.14	149.475	658.26	0.215079	4.12542	2472.74	-0.316521	-1.41956e-013	5	117	0
-0.483454	0	7.67628	0.483454	11.8051	2135.14	149.086	658.26	0.213685	4.13237	2473.68	-0.18689	-1.7099e-013	5	118	0
-0.483885	0	7.8691	0.483885	11.7235	2135.14	148.791	658.26	0.212629	4.13766	2474.4	-0.0689721	-1.97798e-013	5	119	0
-0.48394	0	8.06394	0.48394	11.6659	2135.14	148.582	658.26	0.211882	4.14142	2474.91	0.0366472	-2.19285e-013	5	120	0
-0.483655	0	8.26073	0.483655	11.6304	2135.14	148.453	658.26	0.211421	4.14375	2475.22	0.129267	-2.17894e-013	5	121	0
-0.48307	0	8.45909	0.48307	11.6149	2135.14	148.396	658.26	0.21122	4.14477	2475.36	0.208284	-2.54191e-013	5	122	0
-0.482228	0	8.6594	0.482228	11.6175	2135.14	148.406	658.26	0.211254	4.1446	2475.34	0.27361	-2.47932e-013	5	123	0
-0.48117	0	8.86179	0.48117	11.6363	2135.14	148.474	658.26	0.211499	4.14336	2475.17	0.325207	-2.62316e-013	5	124	0
-0.479945	0	9.06569	0.479945	11.6694	2135.14	148.595	658.26	0.211928	4.14119	2474.88	0.363135	-2.85695e-013	5	125	0
-0.478599	0	9.27115	0.478599	11.7148	2135.14	148.76	658.26	0.212516	4.13823	2474.48	0.387885	-3.28188e-013	5	126	0
-0.477168	0	9.47918	0.477168	11.7708	2135.14	148.963	658.26	0.213242	4.13458	2473.98	0.400172	-3.32557e-013	5	127	0
-0.475705	0	9.68843	0.475705	11.8352	2135.14	149.195	658.26	0.214074	4.13042	2473.42	0.40082	-3.73427e-013	5	128	0
-0.474247	0	9.89941	0.474247	11.9061	2135.14	149.45	658.26	0.214989	4.12587	2472.8	0.390993	-3.90704e-013	5	129	0
-0.472831	0	10.1121	0.472831	11.9816	2135.14	149.72	658.26	0.215962	4.12105	2472.14	0.372022	-4.40604e-013	5	130	0
-0.471488	0	10.3266	0.471488	12.0599	2135.14	149.999	658.26	0.21697	4.11608	2471.46	0.345396	-4.2729e-013	5	131	0
-0.470246	0	10.5428	0.470246	12.1392	2135.14	150.28	658.26	0.217988	4.11109	2470.78	0.312763	-4.23902e-013	5	132	0
-0.469127	0	10.7607	0.469127	12.2179	2135.14	150.558	658.26	0.218996	4.10618	2470.11	0.275851	-4.28186e-013	5	133	0
-0.468147	0	10.98	0.468147	12.2944	2135.14	150.827	658.26	0.219974	4.10143	2469.45	0.236477	-4.18685e-013	5	134	0
-0.467312	0	11.2011	0.467312	12.3675	2135.14	151.082	658.26	0.220908	4.09693	2468.83	0.196309	-3.91271e-013	5	135	0
-0.466625	0	11.4238	0.466625	12.4362	2135.14	151.322	658.26	0.221785	4.09272	2468.25	0.157035	-3.64284e-013	5	136	0
-0.466082	0	11.6482	0.466082	12.4998	2135.14	151.542	658.26	0.222594	4.08885	2467.71	0.120151	-3.45938e-013	5	137	0
-0.465674	0	11.8737	0.465674	12.5577	2135.14	151.742	658.26	0.223329	4.08535	2467.22	0.0870574	-3.23925e-013	5	138	0
-0.465385	0	12.1012	0.465385	12.6098	2135.14	151.922	658.26	0.223991	4.08221	2466.79	0.0587065	-2.79978e-013	5	139	0
-0.465195	0	12.3302	0.465195	12.656	2135.14	152.081	658.26	0.224577	4.07943	2466.4	0.0359696	-2.49764e-013	5	140	0
-0.465084	0	12.5604	0.465084	12.6968	2135.14	152.221	658.26	0.225093	4.07699	2466.06	0.0193668	-2.23467e-013	5	141	0
-0.465027	0	12.792	0.465027	12.7325	2135.14	152.343	658.26	0.225546	4.07487	2465.76	0.00907443	-1.82894e-013	5	142	0
-0.464998	0	13.0254	0.464998	12.7639	2135.14	152.45	658.26	0.225943	4.073	2465.5	0.0049966	-1.57442e-013	5	143	0
-0.464974	0	13.26	0.464974	12.7918	2135.14	152.546	658.26	0.226296	4.07134	2465.27	0.00676218	-1.35179e-013	5	144	0
-0.464932	0	13.496	0.464932	12.8171	2135.14	152.632	658.26	0.226615	4.06985	2465.06	0.0137388	-1.1906e-013	5	145	0
-0.464852	0	13.7332	0.464852	12.8406	2135.14	152.711	658.26	0.226911	4.06847	2464.86	0.0250712	-1.135e-013	5	146	0
-0.464717	0	13.9717	0.464717	12.8632	2135.14	152.788	658.26	0.227197	4.06713	2464.67	0.0397548	-1.16876e-013	5	147	0
-0.464514	0	14.2119	0.464514	12.8859	2135.14	152.865	658.26	0.227483	4.0658	2464.49	0.0567047	-1.15271e-013	5	148	0
-0.464238	0	14.4531	0.464238	12.9093	2135.14	152.945	658.26	0.227779	4.06443	2464.29	0.0746978	-1.35222e-013	5	149	0
-0.463884	0	14.6954	0.463884	12.9341	2135.14	153.029	658.26	0.228091	4.06297	2464.09	0.0925812	-1.51083e-013	5	150	0
-0.463456	0	14.9387	0.463456	12.9609	2135.14	153.119	658.26	0.228428	4.06141	2463.87	0.109261	-1.7044e-013	5	151	0
-0.462958	0	15.1834	0.462958	12.9899	2135.14	153.217	658.26	0.228793	4.05972	2463.63	0.123798	-2.03089e-013	5	152	0
-0.462402	0	15.4294	0.462402	13.0213	2135.14	153.323	658.26	0.229189	4.05789	2463.37	0.135386	-2.35824e-013	5	153	0
-0.461801	0	15.6763	0.461801	13.0552	2135.14	153.437	658.26	0.229615	4.05593	2463.09	0.143428	-2.76302e-013	5	154	0
-0.461172	0	15.9241	0.461172	13.0914	2135.14	153.558	658.26	0.230069	4.05384	2462.8	0.14759	-2.9884e-013	5	155	0
-0.46053	0	16.1729	0.46053	13.1296	2135.14	153.686	658.26	0.230548	4.05164	2462.49	0.147783	-3.26661e-013	5	156	0
-0.459894	0	16.4225	0.459894	13.1694	2135.14	153.819	658.26	0.231047	4.04936	2462.16	0.144161	-3.43778e-013	5	157	0
-0.459279	0	16.673	0.459279	13.2102	2135.14	153.955	658.26	0.231558	4.04702	2461.83	0.137097	-3.85299e-013	5	158	0
-0.4587	0	16.9243	0.4587	13.2516	2135.14	154.092	658.26	0.232076	4.04466	2461.49	0.127162	-4.05342e-013	5	159	0
-0.458167	0	17.1762	0.458167	13.2928	2135.14	154.229	658.26	0.232592	4.04232	2461.16	0.115073	-4.26599e-013	5	160	0
-0.45769	0	17.4287	0.45769	13.3335	2135.14	154.364	658.26	0.233099	4.04001	2460.83	0.10163	-4.54626e-013	5	161	0
0	0	0	0	1000	2135.14	530	658.26	5.09176	1.1	1241.53	0	0	0	0	0
0	0	0.000168491	0	1000	2135.14	530	658.26	5.09176	1.1	1241.53	0	0	0	1	0
0	0	0.000675054	0	1000	2135.14	530	658.26	5.09176	1.1	1241.53	0	0	0	2	0
0	0	0.0015229	0	1000	2135.14	530	658.26	5.09176	1.1	1241.53	0	0	0	3	0
0	0	0.00271722	0	1000	2135.14	530	658.26	5.09176	1.1	1241.53	0	0	0	4	0
0	0	0.00426488	0	1000	2135.14	530	658.26	5.09176	1.1	1241.53	4.03294e-010	-4.77083e-015	0	5	0
0	0	0.00617421	0	999.999	2135.14	530	658.26	5.09175	1.1	1241.53	1.11736e-009	-1.59028e-014	0	6	0
0	0	0.00845462	0	999.999	2135.14	530	658.26	5.09175	1.1	1241.53	1.34621e-009	-1.59028e-014	0	7	0
0	0	0.0111163	0	999.999	2135.14	530	658.26	5.09175	1.1	1241.53	-6.78647e-010	8.34896e-015	0	8	0
0	0	0.0141701	0	1000	2135.14	530	658.26	5.09176	1.1	1241.53	-1.67549e-009	2.06736e-014	0	9	0
0	0	0.0176269	0	1000	2135.14	530	658.26	5.09176	1.1	1241.53	-3.0621e-009	2.10712e-014	0	10	0
0	0	0.021498	0	1000	2135.14	530	658.26	5.09176	1.1	1241.53	-1.43847e-010	2.26615e-014	0	11	0
0	0	0.0257945	0	1000	2135.14	530	658.26	5.09176	1.1	1241.53	-1.71064e-010	3.85642e-014	0	12	0
0	0	0.0305274	0	1000	2135.14	530	658.26	5.09176	1.1	1241.53	-2.80575e-009	3.81667e-014	0	13	0
0	0	0.0357075	0	1000	2135.14	530	658.26	5.09176	1.1	1241.53	-9.82809e-009	3.97569e-014	0	14	0
0	0	0.0413455	0	999.996	2135.14	529.999	658.26	5.09174	1.1	1241.53	-2.17705e-008	6.04305e-014	0	15	0
0	0	0.0474517	0	999.987	2135.14	529.998	658.26	5.09171	1.10001	1241.54	-3.68881e-008	6.04305e-014	0	16	0
0	0	0.0540363	0	999.972	2135.14	529.996	658.26	5.09165	1.10002	1241.55	-5.26676e-008	6.20208e-014	0	17	0
0	0	0.0611095	0	999.951	2135.14	529.993	658.26	5.09158	1.10004	1241.56	-6.47442e-008	6.48038e-014	0	18	0
0	0	0.0686809	0	999.926	2135.14	529.989	658.26	5.09149	1.10006	1241.58	-7.11377e-008	5.725e-014	0	19	0
0	0	0.0767604	0	999.902	2135.14	529.985	658.26	5.0914	1.10008	1241.6	-7.66098e-008	9.18385e-014	0	20	0
0	0	0.0853577	0	999.885	2135.14	529.983	658.26	5.09134	1.10009	1241.61	-9.65623e-008	1.08139e-013	0	21	0
0	0	0.0897043	0	999.876	2135.14	529.981	658.26	5.09131	1.1001	1241.62	-1.31959e-007	1.00187e-013	0	22	0
0	0	0.094483	0	999.867	2135.14	529.98	658.26	5.09127	1.10011	1241.63	-1.91288e-007	8.38871e-014	0	23	0
0	0	0.0988258	0	999.855	2135.14	529.978	658.26	5.09123	1.10012	1241.63	-2.70557e-007	8.11041e-014	0	24	0
0	0	0.104146	0	999.84	2135.14	529.976	658.26	5.09117	1.10013	1241.65	-3.92772e-007	8.38871e-014	0	25	0
0	0	0.108484	0	999.818	2135.14	529.972	658.26	5.0911	1.10015	1241.66	-5.26831e-007	6.67916e-014	0	26	0
0	0	0.114355	0	999.784	2135.14	529.967	658.26	5.09097	1.10017	1241.69	-7.27147e-007	8.26944e-014	0	27	0
0	0	0.118689	0	999.739	2135.14	529.96	658.26	5.09081	1.10021	1241.72	-9.12832e-007	9.97899e-014	0	28	0
0	0	0.125123	0	999.662	2135.14	529.949	658.26	5.09053	1.10027	1241.78	-1.18014e-006	9.22361e-014	0	29	0
0	0	0.129451	0	999.578	2135.14	529.936	658.26	5.09022	1.10034	1241.84	-1.39988e-006	1.09729e-013	0	30	0
0	0	0.136458	0	999.427	2135.14	529.913	658.26	5.08967	1.10046	1241.95	-1.6825e-006	1.45908e-013	0	31	0
0	0	0.14078	0	999.284	2135.14	529.892	658.26	5.08915	1.10058	1242.05	-1.89849e-006	1.38752e-013	0	32	0
0	0	0.148373	0	999.02	2135.14	529.852	658.26	5.08819	1.10079	1242.25	-2.08747e-006	1.2762e-013	0	33	0
0	0	0.152687	0	998.808	2135.14	529.819	658.26	5.08742	1.10096	1242.4	-2.24822e-006	1.30403e-013	0	34	0
0	0	0.160878	0	998.404	2135.14	529.758	658.26	5.08595	1.10129	1242.7	-2.18415e-006	1.18476e-013	0	35	0
0	0	0.165183	0	998.124	2135.14	529.716	658.26	5.08493	1.10151	1242.9	-2.23308e-006	1.22849e-013	0	36	0
0	0	0.169485	0	997.82	2135.14	529.67	658.26	5.08383	1.10176	1243.13	-2.23809e-006	1.24042e-013	0	37	0
0	0	0.173986	0	997.486	2135.14	529.619	658.26	5.08261	1.10203	1243.37	-2.17516e-006	1.13307e-013	0	38	0
0	0	0.178281	0	997.152	2135.14	529.568	658.26	5.08139	1.1023	1243.62	-2.07337e-006	1.23644e-013	0	39	0
0	0	0.182573	0	996.81	2135.14	529.516	658.26	5.08015	1.10257	1243.87	-1.91603e-006	1.35174e-013	0	40	0
0	0	0.187709	0	996.416	2135.14	529.457	658.26	5.07872	1.10289	1244.16	-1.56708e-006	1.25632e-013	0	41	0
0	0	0.191993	0	996.087	2135.14	529.407	658.26	5.07752	1.10316	1244.4	-1.29518e-006	1.69365e-013	0	42	0
0	0	0.196273	0	995.774	2135.14	529.359	658.26	5.07638	1.10341	1244.63	-9.78851e-007	1.7016e-013	0	43	0
0	0	0.202061	0	995.424	2135.14	529.306	658.26	5.0751	1.1037	1244.88	-2.68606e-007	1.65389e-013	0	44	0
0	0	0.206333	0	995.189	2135.14	529.27	658.26	5.07425	1.10389	1245.06	1.18828e-007	1.86062e-013	0	45	0
0	0	0.2106	0	994.999	2135.14	529.241	658.26	5.07355	1.10404	1245.19	5.2103e-007	1.92424e-013	0	46	0
0	0	0.217058	0	994.874	2135.14	529.222	658.26	5.0731	1.10414	1245.29	1.57508e-006	1.90833e-013	0	47	0
0	0	0.221315	0	994.843	2135.14	529.218	658.26	5.07299	1.10416	1245.31	1.95563e-006	1.94014e-013	0	48	0
0	0	0.225568	0	994.885	2135.14	529.224	658.26	5.07314	1.10413	1245.28	2.31403e-006	2.00375e-013	0	49	0
0	0	0.232715	0	995.232	2135.14	529.277	658.26	5.0744	1.10385	1245.02	3.61812e-006	1.8328e-013	0	50	0
0	0	0.236956	0	995.51	2135.14	529.319	658.26	5.07542	1.10363	1244.82	3.8407e-006	2.06736e-013	0	51	0
0	0	0.241193	0	995.877	2135.14	529.375	658.26	5.07675	1.10333	1244.55	4.01165e-006	2.11109e-013	0	52	0
0	0	0.249049	0	996.963	2135.14	529.54	658.26	5.0807	1.10245	1243.75	5.51239e-006	1.94809e-013	0	53	0
0	0	0.253272	0	997.607	2135.14	529.637	658.26	5.08305	1.10193	1243.28	5.45673e-006	2.21049e-013	0	54	0
0	0	0.257491	0	998.336	2135.14	529.748	658.26	5.0857	1.10134	1242.75	5.34383e-006	2.19458e-013	0	55	0
0	0	0.261705	0	999.143	2135.14	529.87	658.26	5.08864	1.10069	1242.16	5.17831e-006	2.29e-013	0	56	0
0	0	0.26608	0	1000.06	2135.14	530.01	658.26	5.09199	1.09995	1241.48	5.01872e-006	2.41722e-013	0	57	0
0	0	0.270284	0	1001.01	2135.14	530.152	658.26	5.09542	1.09919	1240.79	4.76505e-006	2.09519e-013	0	58	0
0	0	0.274482	0	1002	2135.14	530.302	658.26	5.09902	1.09839	1240.06	4.48209e-006	2.08724e-013	0	59	0
0	0	0.278675	0	1003.02	2135.14	530.457	658.26	5.10274	1.09756	1239.31	4.18072e-006	2.00375e-013	0	60	0
0	0	0.281606	0	1003.7	2135.14	530.56	658.26	5.10521	1.09702	1238.82	3.49877e-006	1.87653e-013	0	61	0
0	0	0.306603	0	1013.09	2135.14	531.973	658.26	5.13928	1.08948	1231.94	1.03588e-005	1.70161e-013	0	62	0
0	0	0.346671	0	1020.16	2135.14	533.031	658.26	5.16487	1.08383	1226.77	-4.55833e-005	2.03559e-013	0	63	0
0	0	0.396511	0	988.76	2135.14	528.291	658.26	5.05081	1.10909	1249.77	0.000426929	1.75727e-013	0	64	0
0	0	0.454211	0	925.453	2135.14	518.397	658.26	4.81765	1.16146	1296.47	0.000254016	2.00375e-013	0	65	0
0	0	0.518565	0	860.266	2135.14	507.691	658.26	4.57274	1.21774	1345.17	-8.98677e-005	1.1132e-013	0	66	0
0	0	0.588694	0	793.954	2135.14	496.188	658.26	4.3181	1.27796	1395.61	-0.000173418	1.19272e-013	0	67	0
0	0	0.663913	0	727.438	2135.14	483.937	658.26	4.05649	1.34205	1447.4	0.000163867	1.32391e-013	0	68	0
0	0	0.743662	0	662.358	2135.14	471.15	658.26	3.79382	1.40914	1499.54	0.000484082	1.90833e-013	0	69	0
0	0	0.827483	0	599.061	2135.14	457.821	658.26	3.53117	1.47954	1552.04	0.000279032	1.52666e-013	0	70	0
0	0	0.914994	0	537.8	2135.14	443.926	658.26	3.2693	1.55373	1604.93	6.10229e-005	6.6394e-014	0	71	0
0	0	1.00588	0	479.175	2135.14	429.525	658.26	3.01057	1.63176	1657.97	1.86084e-005	-2.4252e-014	0	72	0
0	0	1.09987	0	424.032	2135.14	414.781	658.26	2.75882	1.7132	1710.58	4.15063e-005	-9.66092e-014	0	73	0
0	0	1.19676	0	373.154	2135.14	399.906	658.26	2.5181	1.79727	1762.05	5.05367e-005	-1.47498e-013	0	74	0
0	0	1.29638	0	327.048	2135.14	385.118	658.26	2.29172	1.88314	1811.78	3.79483e-005	-1.63799e-013	0	75	0
0	0	1.39858	0	285.9	2135.14	370.603	658.26	2.08185	1.97001	1859.3	2.00716e-005	-1.63799e-013	0	76	0
0	0	1.50327	0	249.601	2135.14	356.501	658.26	1.88942	2.05724	1904.33	9.45679e-006	-1.43523e-013	0	77	0
0	0	1.61036	0	217.858	2135.14	342.912	658.26	1.71449	2.14432	1946.73	9.31725e-006	-1.31993e-013	0	78	0
0	0	1.71981	0	190.264	2135.14	329.897	658.26	1.5564	2.23087	1986.5	1.69257e-005	-1.25632e-013	0	79	0
0	0	1.8316	0	166.371	2135.14	317.488	658.26	1.41415	2.31661	2023.69	2.77987e-005	-1.20861e-013	0	80	0
0	0	1.94574	0	145.728	2135.14	305.695	658.26	1.28647	2.40138	2058.4	3.81667e-005	-1.05555e-013	0	81	0
0	0	2.06229	0	127.904	2135.14	294.51	658.26	1.172	2.48506	2090.8	4.57891e-005	-8.34896e-014	0	82	0
0	0	2.1812	0	112.528	2135.14	283.927	658.26	1.06954	2.5675	2121	4.98188e-005	-7.49418e-014	0	83	0
0	0	2.3024	0	99.2651	2135.14	273.934	658.26	0.977898	2.64857	2149.12	5.03839e-005	-6.04305e-014	0	84	0
0	0	2.42585	0	87.8173	2135.14	264.51	658.26	0.895946	2.72819	2175.31	4.81404e-005	-5.46658e-014	0	85	0
0	0	2.55154	0	77.9222	2135.14	255.628	658.26	0.822616	2.80631	2199.71	4.39276e-005	-5.00938e-014	0	86	0
0	0	2.67943	0	69.3567	2135.14	247.262	658.26	0.756961	2.88287	2222.44	3.85568e-005	-4.21424e-014	0	87	0
0	0	2.8095	0	61.9282	2135.14	239.387	658.26	0.698121	2.95785	2243.63	3.26954e-005	-4.21424e-014	0	88	0
0	0	2.94176	0	55.4718	2135.14	231.974	658.26	0.645322	3.03121	2263.4	2.68198e-005	-3.53837e-014	0	89	0
0	0	3.07619	0	49.8492	2135.14	224.998	658.26	0.597893	3.10292	2281.85	2.12173e-005	-2.94202e-014	0	90	0
0	0	3.21267	0	44.9466	2135.14	218.44	658.26	0.555275	3.1729	2299.05	1.60104e-005	-1.88846e-014	0	91	0
0	0	3.35131	0	40.659	2135.14	212.272	658.26	0.516902	3.24116	2315.12	1.11897e-005	-1.90833e-014	0	92	0
0	0	3.49213	0	36.9014	2135.14	206.471	658.26	0.48231	3.30768	2330.12	6.66561e-006	-1.35174e-014	0	93	0
0	0	3.63502	0	33.6045	2135.14	201.023	658.26	0.451122	3.37235	2344.13	2.31163e-006	-1.19271e-014	0	94	0
0	0	3.77993	0	30.7076	2135.14	195.912	658.26	0.422989	3.4351	2357.2	-2.00225e-006	-2.98177e-015	0	95	0
0	0	3.92709	0	28.1538	2135.14	191.111	658.26	0.397552	3.49598	2369.4	-6.38321e-006	-1.03368e-014	0	96	0
0	0	4.07619	0	25.9043	2135.14	186.618	658.26	0.374595	3.55479	2380.77	-1.08762e-005	1.59028e-015	0	97	0
0	0	4.22739	0	23.9181	2135.14	182.413	658.26	0.353846	3.61153	2391.36	-1.54727e-005	7.15625e-015	0	98	0
0	0	4.3808	0	22.1614	2135.14	178.48	658.26	0.335082	3.66616	2401.22	-2.00902e-005	3.97568e-016	0	99	0
0	0	4.53601	0	20.6111	2135.14	174.82	658.26	0.318166	3.71844	2410.36	-2.45675e-005	1.88846e-014	0	100	0
0	0	4.69366	0	19.2367	2135.14	171.407	658.26	0.302863	3.76852	2418.86	-2.87032e-005	-3.37934e-015	0	101	0
0	0	4.85284	0	18.0257	2135.14	168.252	658.26	0.289119	3.81599	2426.68	-3.22228e-005	-2.84262e-014	0	102	0
0	0	5.01462	0	16.952	2135.14	165.325	658.26	0.27671	3.86109	2433.92	-3.48502e-005	-2.76311e-014	0	103	0
0	0	5.17783	0	16.0083	2135.14	162.642	658.26	0.265617	3.9034	2440.53	-3.62801e-005	-4.35339e-014	0	104	0
0	0	5.34371	0	15.1739	2135.14	160.173	658.26	0.255653	3.94315	2446.6	-3.62204e-005	-7.03698e-014	0	105	0
0	0	5.5109	0	14.4445	2135.14	157.934	658.26	0.246813	3.97991	2452.1	-3.44291e-005	-6.67917e-014	0	106	0
0	0	5.68072	0	13.804	2135.14	155.901	658.26	0.238946	4.01391	2457.07	-3.06688e-005	-8.56762e-014	0	107	0
0	0	5.85238	0	13.2472	2135.14	154.078	658.26	0.232022	4.04491	2461.53	-2.4806e-005	-1.07344e-013	0	108	0