VARIABLES = "X(in)","Y(in)","Z(in)","R(in)","P(psia)","PT(psia)","T(R)","TT(R)","RHO(lbm/ft3)","Mach","Velocity(ft/s)","Theta(deg)","Psi(deg)","I","K","BodyFlag"
TITLE = "Volume Mesh Plot"
text  x=5  y=93  t="Characteristic Mesh Plot" 
zone t="All data" I = 163 J = 1 K = 45
1	0	0	1	1000	2135.14	530	658.26	5.09176	1.1	1241.53	0	0	137	0	1
1	0	0.000168491	1	1000	2135.14	530	658.26	5.09176	1.1	1241.53	0	0	137	1	1
1	0	0.000675054	1	1000	2135.14	530	658.26	5.09176	1.1	1241.53	0	0	137	2	1
1	0	0.0015229	1	1000	2135.14	530	658.26	5.09176	1.1	1241.53	0	0	137	3	1
1	0	0.00271722	1	989.812	2135.14	528.452	658.26	5.05465	1.10824	1249	0.161252	0	137	4	1
1.00001	0	0.00426488	1.00001	978.971	2135.14	526.791	658.26	5.01504	1.11706	1256.96	0.33881	0	137	5	1
1.00002	0	0.00617421	1.00002	975.726	2135.14	526.292	658.26	5.00316	1.11971	1259.35	0.392325	0	137	6	1
1.00004	0	0.00845462	1.00004	971.127	2135.14	525.582	658.26	4.98631	1.12348	1262.73	0.469279	0	137	7	1
1.00006	0	0.0111163	1.00006	964.667	2135.14	524.581	658.26	4.96259	1.12878	1267.49	0.579513	0	137	8	1
1.0001	0	0.0141701	1.0001	948.629	2135.14	522.074	658.26	4.90352	1.14205	1279.32	0.864872	0	137	9	1
1.00016	0	0.0176269	1.00016	940.442	2135.14	520.783	658.26	4.87325	1.14887	1285.37	1.014	0	137	10	1
1.00023	0	0.021498	1.00023	931.687	2135.14	519.393	658.26	4.8408	1.15621	1291.85	1.1769	0	137	11	1
1.00033	0	0.0257945	1.00033	914.739	2135.14	516.676	658.26	4.77774	1.17053	1304.42	1.50512	0	137	12	1
1.00047	0	0.0305274	1.00047	900.866	2135.14	514.425	658.26	4.72587	1.18238	1314.75	1.78282	0	137	13	1
1.00064	0	0.0357075	1.00064	887.885	2135.14	512.296	658.26	4.67713	1.19357	1324.45	2.04967	0	137	14	1
1.00086	0	0.0413455	1.00086	872.406	2135.14	509.728	658.26	4.61874	1.20705	1336.05	2.37733	0	137	15	1
1.00113	0	0.0474517	1.00113	857.804	2135.14	507.276	658.26	4.56339	1.21991	1347.03	2.69417	0	137	16	1
1.00146	0	0.0540363	1.00146	840.294	2135.14	504.295	658.26	4.49666	1.23553	1360.26	3.08537	0	137	17	1
1.00187	0	0.0611095	1.00187	822.086	2135.14	501.149	658.26	4.42684	1.252	1374.09	3.50372	0	137	18	1
1.00236	0	0.0686809	1.00236	803.894	2135.14	497.955	658.26	4.35665	1.26871	1387.99	3.93221	0	137	19	1
1.00295	0	0.0767604	1.00295	784.213	2135.14	494.441	658.26	4.28019	1.28709	1403.12	4.40848	0	137	20	1
1.00365	0	0.0853577	1.00365	765.082	2135.14	490.964	658.26	4.20535	1.30528	1417.93	4.88177	0	137	21	1
1.00403	0	0.0897043	1.00403	755.495	2135.14	489.198	658.26	4.16764	1.31451	1425.39	5.12234	0	137	22	1
1.00447	0	0.094483	1.00447	742.14	2135.14	486.712	658.26	4.11488	1.32752	1435.83	5.46724	0	137	23	1
1.0049	0	0.0988258	1.0049	732.462	2135.14	484.89	658.26	4.07648	1.33706	1443.44	5.71808	0	137	24	1
1.00544	0	0.104146	1.00544	723.876	2135.14	483.259	658.26	4.04229	1.3456	1450.21	5.93751	0	137	25	1
1.0059	0	0.108484	1.0059	713.75	2135.14	481.318	658.26	4.00182	1.35577	1458.23	6.20659	0	137	26	1
1.00656	0	0.114355	1.00656	699.77	2135.14	478.605	658.26	3.94568	1.36998	1469.37	6.58523	0	137	27	1
1.00707	0	0.118689	1.00707	690.865	2135.14	476.857	658.26	3.90975	1.37915	1476.5	6.82768	0	137	28	1
1.00786	0	0.125123	1.00786	679.242	2135.14	474.551	658.26	3.86265	1.39126	1485.85	7.14498	0	137	29	1
1.00841	0	0.129451	1.00841	670.318	2135.14	472.761	658.26	3.82633	1.40067	1493.08	7.39464	0	137	30	1
1.00935	0	0.136458	1.00935	653.369	2135.14	469.314	658.26	3.75697	1.4188	1506.88	7.88389	0	137	31	1
1.00996	0	0.14078	1.00996	644.668	2135.14	467.52	658.26	3.72117	1.42825	1514.02	8.13653	0	137	32	1
1.01107	0	0.148373	1.01107	630.231	2135.14	464.505	658.26	3.66145	1.44416	1525.94	8.56035	0	137	33	1
1.01173	0	0.152687	1.01173	621.916	2135.14	462.745	658.26	3.62688	1.45346	1532.85	8.80884	0	137	34	1
1.01303	0	0.160878	1.01303	607.398	2135.14	459.633	658.26	3.5662	1.46994	1545.01	9.24587	0	137	35	1
1.01374	0	0.165183	1.01374	599.22	2135.14	457.856	658.26	3.53184	1.47936	1551.9	9.49812	0	137	36	1
1.01447	0	0.169485	1.01447	591.755	2135.14	456.219	658.26	3.50035	1.48805	1558.23	9.72889	0	137	37	1
1.01525	0	0.173986	1.01525	583.118	2135.14	454.307	658.26	3.46378	1.49822	1565.58	10.0018	0	137	38	1
1.01602	0	0.178281	1.01602	573.991	2135.14	452.264	658.26	3.42497	1.5091	1573.41	10.2968	0	137	39	1
1.01681	0	0.182573	1.01681	566.145	2135.14	450.488	658.26	3.39146	1.51857	1580.17	10.5505	0	137	40	1
1.01778	0	0.187709	1.01778	559.129	2135.14	448.886	658.26	3.36139	1.52714	1586.25	10.7719	0	137	41	1
1.0186	0	0.191993	1.0186	551.183	2135.14	447.054	658.26	3.3272	1.53694	1593.18	11.0347	0	137	42	1
1.01945	0	0.196273	1.01945	541.743	2135.14	444.853	658.26	3.2864	1.54875	1601.46	11.3563	0	137	43	1
1.02063	0	0.202061	1.02063	532.547	2135.14	442.683	658.26	3.24645	1.56042	1609.58	11.6643	0	137	44	1
1.02152	0	0.206333	1.02152	525.521	2135.14	441.006	658.26	3.2158	1.56945	1615.83	11.9038	0	137	45	1
1.02243	0	0.2106	1.02243	518.407	2135.14	439.292	658.26	3.18465	1.5787	1622.19	12.1494	0	137	46	1
1.02384	0	0.217058	1.02384	506.951	2135.14	436.496	658.26	3.13422	1.59382	1632.51	12.5529	0	137	47	1
1.0248	0	0.221315	1.0248	500.551	2135.14	434.915	658.26	3.1059	1.6024	1638.32	12.7782	0	137	48	1
1.02577	0	0.225568	1.02577	494.544	2135.14	433.417	658.26	3.07923	1.61054	1643.81	12.9901	0	137	49	1
1.02745	0	0.232715	1.02745	480.911	2135.14	429.969	658.26	3.01836	1.62934	1656.36	13.4938	0	137	50	1
1.02848	0	0.236956	1.02848	474.727	2135.14	428.382	658.26	2.99058	1.63802	1662.11	13.7211	0	137	51	1
1.02952	0	0.241193	1.02952	468.803	2135.14	426.848	658.26	2.96388	1.64642	1667.65	13.9399	0	137	52	1
1.03151	0	0.249049	1.03151	457.026	2135.14	423.756	658.26	2.91051	1.66342	1678.75	14.3827	0	137	53	1
1.0326	0	0.253272	1.0326	449.678	2135.14	421.798	658.26	2.877	1.67422	1685.74	14.6704	0	137	54	1
1.03372	0	0.257491	1.03372	442.857	2135.14	419.96	658.26	2.84576	1.68439	1692.28	14.9392	0	137	55	1
1.03485	0	0.261705	1.03485	436.932	2135.14	418.347	658.26	2.81852	1.69334	1698	15.1718	0	137	56	1
1.03605	0	0.26608	1.03605	430.078	2135.14	416.462	658.26	2.78686	1.70382	1704.66	15.4475	0	137	57	1
1.03722	0	0.270284	1.03722	424.074	2135.14	414.792	658.26	2.75902	1.71313	1710.53	15.6896	0	137	58	1
1.03841	0	0.274482	1.03841	418.852	2135.14	413.327	658.26	2.73471	1.72132	1715.68	15.8987	0	137	59	1
1.03961	0	0.278675	1.03961	411.779	2135.14	411.32	658.26	2.70164	1.73257	1722.69	16.1957	0	137	60	1
1.04047	0	0.281606	1.04047	407.392	2135.14	410.063	658.26	2.68105	1.73963	1727.07	16.3805	0	137	61	1
1.04793	0	0.306603	1.04793	393.957	2135.14	406.153	658.26	2.6176	1.7617	1740.62	16.8014	0	137	62	1
1.06025	0	0.346671	1.06025	375.45	2135.14	400.608	658.26	2.52916	1.79326	1759.66	17.3019	0	137	63	1
1.07602	0	0.396511	1.07602	356.346	2135.14	394.675	658.26	2.43656	1.82737	1779.8	17.7538	0	137	64	1
1.09474	0	0.454211	1.09474	337.508	2135.14	388.597	658.26	2.34384	1.86271	1800.2	18.1606	0	137	65	1
1.1161	0	0.518565	1.1161	319.554	2135.14	382.576	658.26	2.25409	1.89816	1820.19	18.5167	0	137	66	1
1.13981	0	0.588694	1.13981	302.736	2135.14	376.711	658.26	2.1687	1.93312	1839.45	18.814	0	137	67	1
1.16564	0	0.663913	1.16564	286.777	2135.14	370.927	658.26	2.08641	1.96804	1858.25	19.0651	0	137	68	1
1.19338	0	0.743662	1.19338	271.559	2135.14	365.193	658.26	2.00671	2.00312	1876.7	19.266	0	137	69	1
1.22282	0	0.827483	1.22282	256.937	2135.14	359.464	658.26	1.92892	2.03866	1894.95	19.4179	0	137	70	1
1.25378	0	0.914994	1.25378	242.988	2135.14	353.776	658.26	1.85353	2.07445	1912.9	19.5213	0	137	71	1
1.28607	0	1.00588	1.28607	229.744	2135.14	348.156	658.26	1.78079	2.11034	1930.48	19.5802	0	137	72	1
1.31954	0	1.09987	1.31954	217.148	2135.14	342.592	658.26	1.7105	2.1464	1947.72	19.5975	0	137	73	1
1.35403	0	1.19676	1.35403	205.151	2135.14	337.074	658.26	1.64245	2.18273	1964.67	19.5705	0	137	74	1
1.3894	0	1.29638	1.3894	193.576	2135.14	331.527	658.26	1.57571	2.21984	1981.56	19.508	0	137	75	1
1.42553	0	1.39858	1.42553	182.487	2135.14	325.986	658.26	1.51069	2.25753	1998.29	19.4055	0	137	76	1
1.46228	0	1.50327	1.46228	171.918	2135.14	320.476	658.26	1.44767	2.29565	2014.79	19.265	0	137	77	1
1.49955	0	1.61036	1.49955	161.904	2135.14	315.028	658.26	1.38692	2.33402	2030.98	19.0917	0	137	78	1
1.53723	0	1.71981	1.53723	152.545	2135.14	309.714	658.26	1.32917	2.37211	2046.64	18.884	0	137	79	1
1.57523	0	1.8316	1.57523	143.937	2135.14	304.617	658.26	1.27515	2.4093	2061.55	18.6374	0	137	80	1
1.61343	0	1.94574	1.61343	136.11	2135.14	299.789	658.26	1.22523	2.44514	2075.57	18.3503	0	137	81	1
1.65175	0	2.06229	1.65175	128.912	2135.14	295.171	658.26	1.17859	2.48002	2088.9	18.0379	0	137	82	1
1.69011	0	2.1812	1.69011	122.152	2135.14	290.663	658.26	1.1341	2.51464	2101.83	17.7213	0	137	83	1
1.72848	0	2.3024	1.72848	115.812	2135.14	286.271	658.26	1.09174	2.54895	2114.35	17.4018	0	137	84	1
1.76679	0	2.42585	1.76679	109.906	2135.14	282.021	658.26	1.05168	2.58271	2126.39	17.0751	0	137	85	1
1.80501	0	2.55154	1.80501	104.359	2135.14	277.879	658.26	1.01349	2.61617	2138.06	16.7475	0	137	86	1
1.8431	0	2.67943	1.8431	99.1902	2135.14	273.875	658.26	0.977372	2.64906	2149.29	16.4133	0	137	87	1
1.881	0	2.8095	1.881	94.3619	2135.14	269.998	658.26	0.943147	2.68143	2160.1	16.0737	0	137	88	1
1.91869	0	2.94176	1.91869	89.8092	2135.14	266.21	658.26	0.910415	2.71358	2170.61	15.7346	0	137	89	1
1.95614	0	3.07619	1.95614	85.5323	2135.14	262.525	658.26	0.879232	2.74538	2180.79	15.3932	0	137	90	1
1.99328	0	3.21267	1.99328	81.5011	2135.14	258.928	658.26	0.84943	2.77691	2190.67	15.0523	0	137	91	1
2.03013	0	3.35131	2.03013	77.7076	2135.14	255.426	658.26	0.820997	2.80812	2200.26	14.7101	0	137	92	1
2.06665	0	3.49213	2.06665	74.1284	2135.14	252.008	658.26	0.793805	2.83907	2209.58	14.3684	0	137	93	1
2.10281	0	3.63502	2.10281	70.7517	2135.14	248.673	658.26	0.767805	2.86974	2218.63	14.0282	0	137	94	1
2.13856	0	3.77993	2.13856	67.574	2135.14	245.43	658.26	0.743012	2.90006	2227.39	13.6889	0	137	95	1
2.17395	0	3.92709	2.17395	64.5617	2135.14	242.253	658.26	0.7192	2.93023	2235.95	13.3539	0	137	96	1
2.20889	0	4.07619	2.20889	61.7441	2135.14	239.184	658.26	0.696638	2.95982	2244.18	13.0179	0	137	97	1
2.24338	0	4.22739	2.24338	59.0821	2135.14	236.191	658.26	0.67505	2.98913	2252.18	12.6861	0	137	98	1
2.27746	0	4.3808	2.27746	56.5703	2135.14	233.277	658.26	0.654424	3.0181	2259.94	12.3579	0	137	99	1
2.311	0	4.53601	2.311	54.2182	2135.14	230.464	658.26	0.634871	3.0465	2267.41	12.0316	0	137	100	1
2.34414	0	4.69366	2.34414	51.9875	2135.14	227.714	658.26	0.616102	3.07468	2274.68	11.711	0	137	101	1
2.37668	0	4.85284	2.37668	49.9069	2135.14	225.072	658.26	0.598387	3.10215	2281.65	11.3924	0	137	102	1
2.40881	0	5.01462	2.40881	47.9462	2135.14	222.51	658.26	0.5815	3.12917	2288.39	11.0755	0	137	103	1
2.4403	0	5.17783	2.4403	46.1009	2135.14	220.028	658.26	0.565424	3.15571	2294.9	10.7657	0	137	104	1
2.47138	0	5.34371	2.47138	44.3614	2135.14	217.624	658.26	0.550101	3.1818	2301.18	10.4576	0	137	105	1
2.50178	0	5.5109	2.50178	42.7307	2135.14	215.307	658.26	0.53558	3.20726	2307.22	10.1548	0	137	106	1
2.53174	0	5.68072	2.53174	41.1959	2135.14	213.069	658.26	0.521768	3.2322	2313.05	9.85299	0	137	107	1
2.56109	0	5.85238	2.56109	39.7469	2135.14	210.9	658.26	0.508592	3.25668	2318.67	9.55671	0	137	108	1
2.58986	0	6.02593	2.58986	38.3782	2135.14	208.799	658.26	0.49602	3.2807	2324.11	9.26566	0	137	109	1
2.61805	0	6.20153	2.61805	37.0878	2135.14	206.769	658.26	0.48405	3.30421	2329.36	8.97783	0	137	110	1
2.64565	0	6.37906	2.64565	35.8617	2135.14	204.792	658.26	0.472565	3.32737	2334.45	8.69657	0	137	111	1
2.67268	0	6.55869	2.67268	34.7066	2135.14	202.885	658.26	0.461642	3.34999	2339.35	8.41737	0	137	112	1
2.69908	0	6.74013	2.69908	33.6121	2135.14	201.036	658.26	0.451195	3.37219	2344.1	8.1431	0	137	113	1
2.72486	0	6.92336	2.72486	32.5709	2135.14	199.237	658.26	0.441167	3.39404	2348.7	7.87486	0	137	114	1
2.75007	0	7.1088	2.75007	31.5861	2135.14	197.497	658.26	0.431597	3.41542	2353.15	7.60861	0	137	115	1
2.77464	0	7.29602	2.77464	30.6471	2135.14	195.801	658.26	0.422393	3.43648	2357.48	7.34825	0	137	116	1
2.7986	0	7.48513	2.7986	29.7575	2135.14	194.16	658.26	0.413599	3.45709	2361.66	7.09082	0	137	117	1
2.82194	0	7.67628	2.82194	28.9095	2135.14	192.563	658.26	0.405145	3.47736	2365.72	6.83749	0	137	118	1
2.84464	0	7.8691	2.84464	28.0963	2135.14	191	658.26	0.396972	3.49742	2369.68	6.59101	0	137	119	1
2.86673	0	8.06394	2.86673	27.3269	2135.14	189.491	658.26	0.389177	3.51699	2373.51	6.34562	0	137	120	1
2.88819	0	8.26073	2.88819	26.5916	2135.14	188.02	658.26	0.381668	3.53625	2377.23	6.10447	0	137	121	1
2.90899	0	8.45909	2.90899	25.8834	2135.14	186.575	658.26	0.374379	3.55537	2380.88	5.87066	0	137	122	1
2.92918	0	8.6594	2.92918	25.2065	2135.14	185.168	658.26	0.367359	3.57417	2384.43	5.64056	0	137	123	1
2.94876	0	8.86179	2.94876	24.5636	2135.14	183.806	658.26	0.360641	3.59255	2387.86	5.41188	0	137	124	1
2.96767	0	9.06569	2.96767	23.9446	2135.14	182.47	658.26	0.354126	3.61074	2391.21	5.18978	0	137	125	1
2.98594	0	9.27115	2.98594	23.3549	2135.14	181.175	658.26	0.347875	3.62856	2394.47	4.97105	0	137	126	1
3.00363	0	9.47918	3.00363	22.7892	2135.14	179.91	658.26	0.341836	3.64611	2397.64	4.75501	0	137	127	1
3.02065	0	9.68843	3.02065	22.2473	2135.14	178.677	658.26	0.336009	3.66338	2400.73	4.54462	0	137	128	1
3.03703	0	9.89941	3.03703	21.7307	2135.14	177.482	658.26	0.330418	3.68027	2403.72	4.33714	0	137	129	1
3.05278	0	10.1121	3.05278	21.2341	2135.14	176.314	658.26	0.325007	3.69693	2406.64	4.13485	0	137	130	1
3.06791	0	10.3266	3.06791	20.7576	2135.14	175.174	658.26	0.31978	3.71332	2409.48	3.93708	0	137	131	1
3.08242	0	10.5428	3.08242	20.3041	2135.14	174.072	658.26	0.314774	3.7293	2412.23	3.74211	0	137	132	1
3.0963	0	10.7607	3.0963	19.8681	2135.14	172.996	658.26	0.309931	3.74504	2414.91	3.55237	0	137	133	1
3.10956	0	10.98	3.10956	19.4512	2135.14	171.95	658.26	0.305271	3.76045	2417.51	3.36737	0	137	134	1
3.12221	0	11.2011	3.12221	19.0555	2135.14	170.944	658.26	0.300823	3.77541	2420.01	3.18456	0	137	135	1
3.13425	0	11.4238	3.13425	18.679	2135.14	169.972	658.26	0.296565	3.78996	2422.42	3.00526	0	137	136	1
3.14568	0	11.6482	3.14568	18.3171	2135.14	169.024	658.26	0.292449	3.80426	2424.77	2.8314	0	137	137	1
3.1565	0	11.8737	3.1565	17.9701	2135.14	168.103	658.26	0.288481	3.81825	2427.05	2.66349	0	137	138	1
3.16675	0	12.1012	3.16675	17.6437	2135.14	167.225	658.26	0.284729	3.83169	2429.22	2.49637	0	137	139	1
3.1764	0	12.3302	3.1764	17.331	2135.14	166.373	658.26	0.281115	3.84482	2431.33	2.33464	0	137	140	1
3.18547	0	12.5604	3.18547	17.0327	2135.14	165.55	658.26	0.277651	3.8576	2433.36	2.17789	0	137	141	1
3.19396	0	12.792	3.19396	16.7512	2135.14	164.763	658.26	0.274365	3.86987	2435.3	2.024	0	137	142	1
3.2019	0	13.0254	3.2019	16.4835	2135.14	164.007	658.26	0.271226	3.88176	2437.17	1.87389	0	137	143	1
3.20927	0	13.26	3.20927	16.2287	2135.14	163.278	658.26	0.268225	3.89328	2438.97	1.7286	0	137	144	1
3.2161	0	13.496	3.2161	15.9873	2135.14	162.581	658.26	0.265369	3.90437	2440.68	1.58719	0	137	145	1
3.22238	0	13.7332	3.22238	15.7583	2135.14	161.912	658.26	0.262648	3.91507	2442.33	1.45009	0	137	146	1
3.22814	0	13.9717	3.22814	15.5401	2135.14	161.268	658.26	0.260045	3.92541	2443.91	1.31791	0	137	147	1
3.23339	0	14.2119	3.23339	15.334	2135.14	160.654	658.26	0.257577	3.93534	2445.42	1.18899	0	137	148	1
3.23813	0	14.4531	3.23813	15.1393	2135.14	160.069	658.26	0.255237	3.94485	2446.86	1.06422	0	137	149	1
3.24237	0	14.6954	3.24237	14.9547	2135.14	159.508	658.26	0.25301	3.95399	2448.24	0.944001	0	137	150	1
3.24613	0	14.9387	3.24613	14.777	2135.14	158.965	658.26	0.250858	3.96291	2449.57	0.830283	0	137	151	1
3.24944	0	15.1834	3.24944	14.6087	2135.14	158.445	658.26	0.248815	3.97146	2450.84	0.720629	0	137	152	1
3.2523	0	15.4294	3.2523	14.4515	2135.14	157.956	658.26	0.246899	3.97955	2452.04	0.613884	0	137	153	1
3.25472	0	15.6763	3.25472	14.3025	2135.14	157.489	658.26	0.245078	3.9873	2453.19	0.512054	0	137	154	1
3.25672	0	15.9241	3.25672	14.1594	2135.14	157.037	658.26	0.243324	3.99484	2454.29	0.41666	0	137	155	1
3.25833	0	16.1729	3.25833	14.0217	2135.14	156.599	658.26	0.241631	4.00217	2455.37	0.32775	0	137	156	1
3.25957	0	16.4225	3.25957	13.8928	2135.14	156.187	658.26	0.240042	4.0091	2456.37	0.243021	0	137	157	1
3.26045	0	16.673	3.26045	13.7664	2135.14	155.78	658.26	0.238481	4.01596	2457.37	0.166805	0	137	158	1
3.26103	0	16.9243	3.26103	13.6429	2135.14	155.379	658.26	0.236951	4.02274	2458.35	0.0991352	0	137	159	1
3.26132	0	17.1762	3.26132	13.521	2135.14	154.981	658.26	0.235437	4.02949	2459.32	0.0409513	0	137	160	1
3.26139	0	17.4287	3.26139	13.3683	2135.14	154.479	658.26	0.233535	4.03804	2460.55	0.0161173	0	137	161	1
3.26139	0	17.4287	3.26139	13.3683	2135.14	154.479	658.26	0.233535	4.03804	2460.55	0.0161173	0	137	161	1
0.989821	0.142315	0	1	1000	2135.14	530	658.26	5.09176	1.1	1241.53	0	0	138	0	1
0.989821	0.142315	0.000168491	1	1000	2135.14	530	658.26	5.09176	1.1	1241.53	0	0	138	1	1
0.989821	0.142315	0.000675054	1	1000	2135.14	530	658.26	5.09176	1.1	1241.53	0	0	138	2	1
0.989821	0.142315	0.0015229	1	1000	2135.14	530	658.26	5.09176	1.1	1241.53	0	0	138	3	1
0.989821	0.142315	0.00271722	1	989.812	2135.14	528.452	658.26	5.05465	1.10824	1249	0.15961	0.0229487	138	4	1
0.989831	0.142316	0.00426488	1.00001	978.971	2135.14	526.791	658.26	5.01504	1.11706	1256.96	0.335362	0.0482158	138	5	1
0.989841	0.142318	0.00617421	1.00002	975.726	2135.14	526.292	658.26	5.00316	1.11971	1259.35	0.388333	0.0558253	138	6	1
0.989861	0.142321	0.00845462	1.00004	971.128	2135.14	525.582	658.26	4.98631	1.12348	1262.73	0.464505	0.0667687	138	7	1
0.989881	0.142323	0.0111163	1.00006	964.667	2135.14	524.581	658.26	4.96259	1.12878	1267.49	0.573619	0.0824464	138	8	1
0.98992	0.142329	0.0141701	1.0001	948.629	2135.14	522.074	658.26	4.90352	1.14205	1279.31	0.856075	0.12305	138	9	1
0.98998	0.142338	0.0176269	1.00016	940.443	2135.14	520.783	658.26	4.87326	1.14887	1285.36	1.00368	0.144253	138	10	1
0.990049	0.142348	0.021498	1.00023	931.689	2135.14	519.393	658.26	4.84081	1.15621	1291.85	1.16494	0.167415	138	11	1
0.990148	0.142362	0.0257945	1.00033	914.743	2135.14	516.676	658.26	4.77776	1.17053	1304.42	1.48982	0.214118	138	12	1
0.990287	0.142382	0.0305274	1.00047	900.873	2135.14	514.426	658.26	4.7259	1.18237	1314.75	1.7647	0.253623	138	13	1
0.990455	0.142406	0.0357075	1.00064	887.895	2135.14	512.297	658.26	4.67717	1.19356	1324.44	2.02883	0.291581	138	14	1
0.990673	0.142437	0.0413455	1.00086	872.422	2135.14	509.73	658.26	4.6188	1.20704	1336.03	2.35317	0.338209	138	15	1
0.99094	0.142476	0.0474517	1.00113	857.828	2135.14	507.28	658.26	4.56348	1.21989	1347.01	2.66678	0.383294	138	16	1
0.991267	0.142522	0.0540363	1.00146	840.329	2135.14	504.301	658.26	4.49679	1.2355	1360.23	3.05401	0.438995	138	17	1
0.991672	0.142581	0.0611095	1.00187	822.134	2135.14	501.157	658.26	4.42703	1.25196	1374.05	3.46811	0.498577	138	18	1
0.992157	0.14265	0.0686809	1.00236	803.959	2135.14	497.966	658.26	4.3569	1.26866	1387.94	3.89225	0.559617	138	19	1
0.992741	0.142734	0.0767604	1.00295	784.298	2135.14	494.456	658.26	4.28052	1.28702	1403.05	4.36368	0.627501	138	20	1
0.993434	0.142834	0.0853577	1.00365	765.19	2135.14	490.984	658.26	4.20577	1.30518	1417.84	4.83217	0.694965	138	21	1
0.993811	0.142888	0.0897043	1.00403	755.614	2135.14	489.22	658.26	4.16811	1.3144	1425.3	5.0703	0.729259	138	22	1
0.994246	0.14295	0.094483	1.00447	742.271	2135.14	486.736	658.26	4.1154	1.3274	1435.73	5.41169	0.778527	138	23	1
0.994672	0.143011	0.0988258	1.0049	732.604	2135.14	484.917	658.26	4.07705	1.33692	1443.33	5.65999	0.814327	138	24	1
0.995206	0.143088	0.104146	1.00544	724.032	2135.14	483.289	658.26	4.04291	1.34544	1450.09	5.87721	0.845559	138	25	1
0.995662	0.143153	0.108484	1.0059	713.915	2135.14	481.35	658.26	4.00248	1.3556	1458.1	6.14355	0.884013	138	26	1
0.996315	0.143247	0.114355	1.00656	699.948	2135.14	478.64	658.26	3.94639	1.3698	1469.23	6.51835	0.938191	138	27	1
0.99682	0.143319	0.118689	1.00707	691.052	2135.14	476.894	658.26	3.9105	1.37896	1476.35	6.75834	0.972863	138	28	1
0.997602	0.143431	0.125123	1.00786	679.443	2135.14	474.591	658.26	3.86346	1.39105	1485.69	7.07243	1.01821	138	29	1
0.998146	0.143509	0.129451	1.00841	670.526	2135.14	472.803	658.26	3.82718	1.40045	1492.91	7.31955	1.05398	138	30	1
0.999077	0.143642	0.136458	1.00935	653.588	2135.14	469.36	658.26	3.75787	1.41856	1506.7	7.80381	1.12431	138	31	1
0.999681	0.143729	0.14078	1.00996	644.894	2135.14	467.567	658.26	3.7221	1.42801	1513.83	8.05388	1.16061	138	32	1
1.00078	0.143886	0.148373	1.01107	630.468	2135.14	464.555	658.26	3.66243	1.4439	1525.74	8.47339	1.22155	138	33	1
1.00143	0.143979	0.152687	1.01173	622.159	2135.14	462.797	658.26	3.62789	1.45319	1532.65	8.71934	1.25734	138	34	1
1.00272	0.144164	0.160878	1.01303	607.651	2135.14	459.688	658.26	3.56726	1.46965	1544.79	9.15192	1.32034	138	35	1
1.00342	0.144264	0.165183	1.01374	599.477	2135.14	457.912	658.26	3.53292	1.47906	1551.68	9.4016	1.3568	138	36	1
1.00415	0.144367	0.169485	1.01447	592.016	2135.14	456.277	658.26	3.50146	1.48775	1558	9.63001	1.39015	138	37	1
1.00492	0.144478	0.173986	1.01525	583.382	2135.14	454.365	658.26	3.4649	1.49791	1565.36	9.90008	1.42971	138	38	1
1.00568	0.144587	0.178281	1.01602	574.257	2135.14	452.323	658.26	3.4261	1.50878	1573.18	10.1921	1.47261	138	39	1
1.00646	0.144699	0.182573	1.01681	566.413	2135.14	450.549	658.26	3.39261	1.51825	1579.94	10.4431	1.50949	138	40	1
1.00742	0.144836	0.187709	1.01778	559.4	2135.14	448.949	658.26	3.36255	1.5268	1586.02	10.6624	1.54158	138	41	1
1.00823	0.144952	0.191993	1.0186	551.456	2135.14	447.118	658.26	3.32837	1.5366	1592.94	10.9224	1.57991	138	42	1
1.00908	0.145072	0.196273	1.01945	542.015	2135.14	444.917	658.26	3.28758	1.5484	1601.22	11.2406	1.62704	138	43	1
1.01024	0.145239	0.202061	1.02063	532.82	2135.14	442.747	658.26	3.24764	1.56007	1609.34	11.5455	1.67207	138	44	1
1.01112	0.145365	0.206333	1.02152	525.795	2135.14	441.072	658.26	3.217	1.56909	1615.58	11.7825	1.70718	138	45	1
1.01203	0.145493	0.2106	1.02243	518.68	2135.14	439.358	658.26	3.18584	1.57834	1621.94	12.0256	1.74327	138	46	1
1.01342	0.145693	0.217058	1.02384	507.224	2135.14	436.563	658.26	3.13542	1.59346	1632.27	12.4248	1.80276	138	47	1
1.01437	0.145828	0.221315	1.0248	500.822	2135.14	434.982	658.26	3.10711	1.60204	1638.08	12.6478	1.83598	138	48	1
1.01533	0.145965	0.225568	1.02577	494.814	2135.14	433.485	658.26	3.08043	1.61017	1643.56	12.8575	1.86725	138	49	1
1.01699	0.146203	0.232715	1.02745	481.177	2135.14	430.037	658.26	3.01955	1.62896	1656.12	13.3559	1.94218	138	50	1
1.01801	0.146348	0.236956	1.02848	474.992	2135.14	428.45	658.26	2.99178	1.63764	1661.86	13.5808	1.97596	138	51	1
1.01904	0.146495	0.241193	1.02952	469.066	2135.14	426.916	658.26	2.96507	1.64605	1667.4	13.7972	2.00852	138	52	1
1.02101	0.146776	0.249049	1.03151	457.285	2135.14	423.825	658.26	2.91168	1.66304	1678.5	14.2354	2.07472	138	53	1
1.02209	0.14693	0.253272	1.0326	449.933	2135.14	421.867	658.26	2.87817	1.67384	1685.5	14.5201	2.11797	138	54	1
1.0232	0.147089	0.257491	1.03372	443.109	2135.14	420.029	658.26	2.84692	1.68401	1692.04	14.7859	2.15844	138	55	1
1.02432	0.147248	0.261705	1.03485	437.182	2135.14	418.416	658.26	2.81967	1.69296	1697.76	15.0161	2.19349	138	56	1
1.02551	0.147418	0.26608	1.03605	430.324	2135.14	416.53	658.26	2.788	1.70344	1704.42	15.2888	2.23521	138	57	1
1.02667	0.147583	0.270284	1.03722	424.317	2135.14	414.86	658.26	2.76015	1.71275	1710.3	15.5284	2.2719	138	58	1
1.02784	0.147751	0.274482	1.03841	419.092	2135.14	413.394	658.26	2.73583	1.72095	1715.44	15.7352	2.30358	138	59	1
1.02903	0.147921	0.278675	1.03961	412.015	2135.14	411.387	658.26	2.70275	1.73219	1722.45	16.029	2.34893	138	60	1
1.02988	0.148042	0.281606	1.04047	407.625	2135.14	410.13	658.26	2.68215	1.73926	1726.83	16.2118	2.37716	138	61	1
1.03727	0.149095	0.306603	1.04793	394.179	2135.14	406.218	658.26	2.61865	1.76133	1740.39	16.6284	2.43939	138	62	1
1.04947	0.150832	0.346671	1.06025	375.67	2135.14	400.675	658.26	2.53022	1.79287	1759.43	17.1241	2.51243	138	63	1
1.06508	0.153051	0.396511	1.07602	356.568	2135.14	394.745	658.26	2.43764	1.82696	1779.56	17.5717	2.57724	138	64	1
1.08361	0.155681	0.454211	1.09474	337.65	2135.14	388.644	658.26	2.34454	1.86244	1800.05	17.9748	2.63575	138	65	1
1.10476	0.158678	0.518565	1.1161	319.489	2135.14	382.553	658.26	2.25376	1.89829	1820.27	18.327	2.69022	138	66	1
1.12824	0.162009	0.588694	1.13981	302.358	2135.14	376.577	658.26	2.16676	1.93392	1839.89	18.6201	2.74348	138	67	1
1.15381	0.165653	0.663913	1.16564	286.054	2135.14	370.66	658.26	2.08265	1.96966	1859.11	18.8659	2.80059	138	68	1
1.18127	0.1696	0.743662	1.19338	270.535	2135.14	364.799	658.26	2.0013	2.00555	1877.96	19.0603	2.86147	138	69	1
1.2104	0.173838	0.827483	1.22282	255.74	2135.14	358.984	658.26	1.9225	2.04166	1896.47	19.205	2.92371	138	70	1
1.24103	0.178355	0.914994	1.25378	241.79	2135.14	353.277	658.26	1.847	2.07762	1914.47	19.3012	2.98195	138	71	1
1.27296	0.183131	1.00588	1.28607	228.696	2135.14	347.702	658.26	1.77499	2.11326	1931.89	19.3537	3.03064	138	72	1
1.30606	0.188138	1.09987	1.31954	216.354	2135.14	342.234	658.26	1.70603	2.14875	1948.82	19.3662	3.06508	138	73	1
1.34016	0.193343	1.19676	1.35403	204.661	2135.14	336.844	658.26	1.63965	2.18426	1965.37	19.3365	3.08153	138	74	1
1.37512	0.198707	1.29638	1.3894	193.399	2135.14	331.44	658.26	1.57468	2.22043	1981.82	19.2734	3.08003	138	75	1
1.41083	0.204192	1.39858	1.42553	182.593	2135.14	326.04	658.26	1.51132	2.25716	1998.13	19.1725	3.06012	138	76	1
1.44716	0.209758	1.50327	1.46228	172.255	2135.14	320.656	658.26	1.44969	2.2944	2014.26	19.0357	3.02369	138	77	1
1.484	0.215371	1.61036	1.49955	162.407	2135.14	315.307	658.26	1.38999	2.33204	2030.15	18.8676	2.97398	138	78	1
1.52126	0.221003	1.71981	1.53723	153.143	2135.14	310.06	658.26	1.33289	2.36961	2045.62	18.6662	2.9136	138	79	1
1.55884	0.226629	1.8316	1.57523	144.565	2135.14	304.996	658.26	1.27912	2.40651	2060.44	18.4267	2.8448	138	80	1
1.59663	0.23223	1.94574	1.61343	136.711	2135.14	300.167	658.26	1.22909	2.44231	2074.48	18.1472	2.77001	138	81	1
1.63454	0.237793	2.06229	1.65175	129.444	2135.14	295.519	658.26	1.18207	2.47737	2087.9	17.8422	2.69391	138	82	1
1.6725	0.243313	2.1812	1.69011	122.585	2135.14	290.958	658.26	1.13698	2.51236	2100.99	17.5325	2.62157	138	83	1
1.71048	0.248793	2.3024	1.72848	116.131	2135.14	286.496	658.26	1.09389	2.54718	2113.71	17.2191	2.55426	138	84	1
1.7484	0.254233	2.42585	1.76679	110.106	2135.14	282.168	658.26	1.05305	2.58153	2125.97	16.8977	2.49176	138	85	1
1.78624	0.259641	2.55154	1.80501	104.45	2135.14	277.949	658.26	1.01412	2.61561	2137.87	16.5746	2.43492	138	86	1
1.82395	0.265022	2.67943	1.8431	99.1866	2135.14	273.872	658.26	0.977346	2.64908	2149.29	16.2443	2.38231	138	87	1
1.86147	0.270378	2.8095	1.881	94.283	2135.14	269.934	658.26	0.942584	2.68198	2160.28	15.9079	2.33328	138	88	1
1.89878	0.275715	2.94176	1.91869	89.676	2135.14	266.097	658.26	0.909451	2.71455	2170.92	15.5716	2.28778	138	89	1
1.93585	0.281036	3.07619	1.95614	85.3654	2135.14	262.378	658.26	0.878006	2.74665	2181.19	15.2327	2.24429	138	90	1
1.97261	0.286335	3.21267	1.99328	81.319	2135.14	258.763	658.26	0.848073	2.77837	2191.13	14.894	2.20225	138	91	1
2.00908	0.291617	3.35131	2.03013	77.5261	2135.14	255.256	658.26	0.819627	2.80965	2200.73	14.5541	2.16048	138	92	1
2.04522	0.296877	3.49213	2.06665	73.9599	2135.14	251.844	658.26	0.792516	2.84056	2210.02	14.2146	2.11848	138	93	1
2.08099	0.302111	3.63502	2.10281	70.6055	2135.14	248.526	658.26	0.766672	2.87111	2219.02	13.8769	2.07581	138	94	1
2.11637	0.307308	3.77993	2.13856	67.456	2135.14	245.307	658.26	0.742085	2.90122	2227.72	13.5401	2.03188	138	95	1
2.15138	0.312471	3.92709	2.17395	64.4752	2135.14	242.16	658.26	0.718511	2.93111	2236.2	13.2079	1.98695	138	96	1
2.18594	0.317584	4.07619	2.20889	61.6898	2135.14	239.124	658.26	0.696201	2.96041	2244.34	12.875	1.94004	138	97	1
2.22006	0.322641	4.22739	2.24338	59.059	2135.14	236.165	658.26	0.674861	2.98939	2252.25	12.5466	1.89192	138	98	1
2.25377	0.327643	4.3808	2.27746	56.5758	2135.14	233.284	658.26	0.654469	3.01804	2259.92	12.222	1.84254	138	99	1
2.28695	0.332567	4.53601	2.311	54.2487	2135.14	230.501	658.26	0.635126	3.04613	2267.31	11.8995	1.79181	138	100	1
2.31973	0.337428	4.69366	2.34414	52.0388	2135.14	227.778	658.26	0.616536	3.07402	2274.51	11.5828	1.7405	138	101	1
2.35192	0.342193	4.85284	2.37668	49.9745	2135.14	225.159	658.26	0.598966	3.10123	2281.42	11.2682	1.68832	138	102	1
2.3837	0.346887	5.01462	2.40881	48.0257	2135.14	222.615	658.26	0.582187	3.12806	2288.11	10.9555	1.63549	138	103	1
2.41486	0.351472	5.17783	2.4403	46.1876	2135.14	220.146	658.26	0.566183	3.15444	2294.59	10.65	1.58314	138	104	1
2.44561	0.355981	5.34371	2.47138	44.4513	2135.14	217.749	658.26	0.550897	3.18042	2300.85	10.3462	1.5307	138	105	1
2.47569	0.360373	5.5109	2.50178	42.82	2135.14	215.436	658.26	0.53638	3.20584	2306.89	10.0476	1.47905	138	106	1
2.50534	0.364682	5.68072	2.53174	41.2814	2135.14	213.195	658.26	0.522542	3.23079	2312.72	9.75001	1.42774	138	107	1
2.53438	0.368885	5.85238	2.56109	39.8259	2135.14	211.02	658.26	0.509314	3.25532	2318.36	9.4578	1.3777	138	108	1
2.56286	0.372986	6.02593	2.58986	38.4484	2135.14	208.908	658.26	0.496668	3.27945	2323.83	9.17068	1.32909	138	109	1
2.59077	0.376986	6.20153	2.61805	37.1476	2135.14	206.864	658.26	0.484607	3.3031	2329.11	8.88663	1.28177	138	110	1
2.61809	0.380888	6.37906	2.64565	35.91	2135.14	204.871	658.26	0.473019	3.32645	2334.25	8.60894	1.23636	138	111	1
2.64485	0.384696	6.55869	2.67268	34.7426	2135.14	202.946	658.26	0.461984	3.34928	2339.2	8.33315	1.19229	138	112	1
2.67099	0.388404	6.74013	2.69908	33.6357	2135.14	201.077	658.26	0.451421	3.3717	2343.99	8.06208	1.15003	138	113	1
2.69651	0.392018	6.92336	2.72486	32.5822	2135.14	199.257	658.26	0.441277	3.3938	2348.65	7.79681	1.10977	138	114	1
2.72148	0.395547	7.1088	2.75007	31.5857	2135.14	197.496	658.26	0.431594	3.41542	2353.15	7.53337	1.07089	138	115	1
2.7458	0.398986	7.29602	2.77464	30.6358	2135.14	195.781	658.26	0.422283	3.43674	2357.53	7.27559	1.03393	138	116	1