VARIABLES = "X(in)","Y(in)","Z(in)","R(in)","P(psia)","PT(psia)","T(R)","TT(R)","RHO(lbm/ft3)","Mach","Velocity(ft/s)","Theta(deg)","Psi(deg)","I","K","BodyFlag"
TITLE = "Volume Mesh Plot"
text  x=5  y=93  t="Characteristic Mesh Plot" 
zone t="Z = 0" I = 1 J = 1 K = 181
0	0	0	0	1000	2135.14	530	658.26	5.09176	1.1	1241.53	0	0	0	0	0
0.142857	0	0	0.142857	1000	2135.14	530	658.26	5.09176	1.1	1241.53	0	0	1	0	0
0.101015	0.101015	0	0.142857	1000	2135.14	530	658.26	5.09176	1.1	1241.53	0	0	2	0	0
8.74719e-018	0.142857	0	0.142857	1000	2135.14	530	658.26	5.09176	1.1	1241.53	0	0	3	0	0
-0.101015	0.101015	0	0.142857	1000	2135.14	530	658.26	5.09176	1.1	1241.53	0	0	4	0	0
-0.142857	1.74944e-017	0	0.142857	1000	2135.14	530	658.26	5.09176	1.1	1241.53	0	0	5	0	0
-0.101015	-0.101015	0	0.142857	1000	2135.14	530	658.26	5.09176	1.1	1241.53	0	0	6	0	0
-2.62416e-017	-0.142857	0	0.142857	1000	2135.14	530	658.26	5.09176	1.1	1241.53	0	0	7	0	0
0.101015	-0.101015	0	0.142857	1000	2135.14	530	658.26	5.09176	1.1	1241.53	0	0	8	0	0
0.285714	0	0	0.285714	1000	2135.14	530	658.26	5.09176	1.1	1241.53	0	0	9	0	0
0.252987	0.132778	0	0.285714	1000	2135.14	530	658.26	5.09176	1.1	1241.53	0	0	10	0	0
0.162304	0.235138	0	0.285714	1000	2135.14	530	658.26	5.09176	1.1	1241.53	0	0	11	0	0
0.0344391	0.283631	0	0.285714	1000	2135.14	530	658.26	5.09176	1.1	1241.53	0	0	12	0	0
-0.101316	0.267147	0	0.285714	1000	2135.14	530	658.26	5.09176	1.1	1241.53	0	0	13	0	0
-0.21386	0.189464	0	0.285714	1000	2135.14	530	658.26	5.09176	1.1	1241.53	0	0	14	0	0
-0.277412	0.0683759	0	0.285714	1000	2135.14	530	658.26	5.09176	1.1	1241.53	0	0	15	0	0
-0.277412	-0.0683759	0	0.285714	1000	2135.14	530	658.26	5.09176	1.1	1241.53	0	0	16	0	0
-0.21386	-0.189464	0	0.285714	1000	2135.14	530	658.26	5.09176	1.1	1241.53	0	0	17	0	0
-0.101316	-0.267147	0	0.285714	1000	2135.14	530	658.26	5.09176	1.1	1241.53	0	0	18	0	0
0.0344391	-0.283631	0	0.285714	1000	2135.14	530	658.26	5.09176	1.1	1241.53	0	0	19	0	0
0.162304	-0.235138	0	0.285714	1000	2135.14	530	658.26	5.09176	1.1	1241.53	0	0	20	0	0
0.252987	-0.132778	0	0.285714	1000	2135.14	530	658.26	5.09176	1.1	1241.53	0	0	21	0	0
0.428571	0	0	0.428571	1000	2135.14	530	658.26	5.09176	1.1	1241.53	0	0	22	0	0
0.40535	0.139157	0	0.428571	1000	2135.14	530	658.26	5.09176	1.1	1241.53	0	0	23	0	0
0.338203	0.263234	0	0.428571	1000	2135.14	530	658.26	5.09176	1.1	1241.53	0	0	24	0	0
0.234406	0.358786	0	0.428571	1000	2135.14	530	658.26	5.09176	1.1	1241.53	0	0	25	0	0
0.105208	0.415457	0	0.428571	1000	2135.14	530	658.26	5.09176	1.1	1241.53	0	0	26	0	0
-0.0353911	0.427108	0	0.428571	1000	2135.14	530	658.26	5.09176	1.1	1241.53	0	0	27	0	0
-0.172155	0.392474	0	0.428571	1000	2135.14	530	658.26	5.09176	1.1	1241.53	0	0	28	0	0
-0.290264	0.31531	0	0.428571	1000	2135.14	530	658.26	5.09176	1.1	1241.53	0	0	29	0	0
-0.376917	0.203977	0	0.428571	1000	2135.14	530	658.26	5.09176	1.1	1241.53	0	0	30	0	0
-0.422726	0.0705405	0	0.428571	1000	2135.14	530	658.26	5.09176	1.1	1241.53	0	0	31	0	0
-0.422726	-0.0705405	0	0.428571	1000	2135.14	530	658.26	5.09176	1.1	1241.53	0	0	32	0	0
-0.376917	-0.203977	0	0.428571	1000	2135.14	530	658.26	5.09176	1.1	1241.53	0	0	33	0	0
-0.290264	-0.31531	0	0.428571	1000	2135.14	530	658.26	5.09176	1.1	1241.53	0	0	34	0	0
-0.172155	-0.392474	0	0.428571	1000	2135.14	530	658.26	5.09176	1.1	1241.53	0	0	35	0	0
-0.0353911	-0.427108	0	0.428571	1000	2135.14	530	658.26	5.09176	1.1	1241.53	0	0	36	0	0
0.105208	-0.415457	0	0.428571	1000	2135.14	530	658.26	5.09176	1.1	1241.53	0	0	37	0	0
0.234406	-0.358786	0	0.428571	1000	2135.14	530	658.26	5.09176	1.1	1241.53	0	0	38	0	0
0.338203	-0.263234	0	0.428571	1000	2135.14	530	658.26	5.09176	1.1	1241.53	0	0	39	0	0
0.40535	-0.139157	0	0.428571	1000	2135.14	530	658.26	5.09176	1.1	1241.53	0	0	40	0	0
0.571429	0	0	0.571429	1000	2135.14	530	658.26	5.09176	1.1	1241.53	0	0	41	0	0
0.554824	0.136752	0	0.571429	1000	2135.14	530	658.26	5.09176	1.1	1241.53	0	0	42	0	0
0.505975	0.265556	0	0.571429	1000	2135.14	530	658.26	5.09176	1.1	1241.53	0	0	43	0	0
0.42772	0.378927	0	0.571429	1000	2135.14	530	658.26	5.09176	1.1	1241.53	0	0	44	0	0
0.324608	0.470276	0	0.571429	1000	2135.14	530	658.26	5.09176	1.1	1241.53	0	0	45	0	0
0.202631	0.534295	0	0.571429	1000	2135.14	530	658.26	5.09176	1.1	1241.53	0	0	46	0	0
0.0688781	0.567262	0	0.571429	1000	2135.14	530	658.26	5.09176	1.1	1241.53	0	0	47	0	0
-0.0688781	0.567262	0	0.571429	1000	2135.14	530	658.26	5.09176	1.1	1241.53	0	0	48	0	0
-0.202631	0.534295	0	0.571429	1000	2135.14	530	658.26	5.09176	1.1	1241.53	0	0	49	0	0
-0.324608	0.470276	0	0.571429	1000	2135.14	530	658.26	5.09176	1.1	1241.53	0	0	50	0	0
-0.42772	0.378927	0	0.571429	1000	2135.14	530	658.26	5.09176	1.1	1241.53	0	0	51	0	0
-0.505975	0.265556	0	0.571429	1000	2135.14	530	658.26	5.09176	1.1	1241.53	0	0	52	0	0
-0.554824	0.136752	0	0.571429	1000	2135.14	530	658.26	5.09176	1.1	1241.53	0	0	53	0	0
-0.571429	-1.83788e-016	0	0.571429	1000	2135.14	530	658.26	5.09176	1.1	1241.53	0	0	54	0	0
-0.554824	-0.136752	0	0.571429	1000	2135.14	530	658.26	5.09176	1.1	1241.53	0	0	55	0	0
-0.505975	-0.265556	0	0.571429	1000	2135.14	530	658.26	5.09176	1.1	1241.53	0	0	56	0	0
-0.42772	-0.378927	0	0.571429	1000	2135.14	530	658.26	5.09176	1.1	1241.53	0	0	57	0	0
-0.324608	-0.470276	0	0.571429	1000	2135.14	530	658.26	5.09176	1.1	1241.53	0	0	58	0	0
-0.202631	-0.534295	0	0.571429	1000	2135.14	530	658.26	5.09176	1.1	1241.53	0	0	59	0	0
-0.0688781	-0.567262	0	0.571429	1000	2135.14	530	658.26	5.09176	1.1	1241.53	0	0	60	0	0
0.0688781	-0.567262	0	0.571429	1000	2135.14	530	658.26	5.09176	1.1	1241.53	0	0	61	0	0
0.202631	-0.534295	0	0.571429	1000	2135.14	530	658.26	5.09176	1.1	1241.53	0	0	62	0	0
0.324608	-0.470276	0	0.571429	1000	2135.14	530	658.26	5.09176	1.1	1241.53	0	0	63	0	0
0.42772	-0.378927	0	0.571429	1000	2135.14	530	658.26	5.09176	1.1	1241.53	0	0	64	0	0
0.505975	-0.265556	0	0.571429	1000	2135.14	530	658.26	5.09176	1.1	1241.53	0	0	65	0	0
0.554824	-0.136752	0	0.571429	1000	2135.14	530	658.26	5.09176	1.1	1241.53	0	0	66	0	0
0.714286	0	0	0.714286	1000	2135.14	530	658.26	5.09176	1.1	1241.53	0	0	67	0	0
0.700561	0.13935	0	0.714286	1000	2135.14	530	658.26	5.09176	1.1	1241.53	0	0	68	0	0
0.659914	0.273345	0	0.714286	1000	2135.14	530	658.26	5.09176	1.1	1241.53	0	0	69	0	0
0.593907	0.396836	0	0.714286	1000	2135.14	530	658.26	5.09176	1.1	1241.53	0	0	70	0	0
0.505076	0.505076	0	0.714286	1000	2135.14	530	658.26	5.09176	1.1	1241.53	0	0	71	0	0
0.396836	0.593907	0	0.714286	1000	2135.14	530	658.26	5.09176	1.1	1241.53	0	0	72	0	0
0.273345	0.659914	0	0.714286	1000	2135.14	530	658.26	5.09176	1.1	1241.53	0	0	73	0	0
0.13935	0.700561	0	0.714286	1000	2135.14	530	658.26	5.09176	1.1	1241.53	0	0	74	0	0
4.37359e-017	0.714286	0	0.714286	1000	2135.14	530	658.26	5.09176	1.1	1241.53	0	0	75	0	0
-0.13935	0.700561	0	0.714286	1000	2135.14	530	658.26	5.09176	1.1	1241.53	0	0	76	0	0
-0.273345	0.659914	0	0.714286	1000	2135.14	530	658.26	5.09176	1.1	1241.53	0	0	77	0	0
-0.396836	0.593907	0	0.714286	1000	2135.14	530	658.26	5.09176	1.1	1241.53	0	0	78	0	0
-0.505076	0.505076	0	0.714286	1000	2135.14	530	658.26	5.09176	1.1	1241.53	0	0	79	0	0
-0.593907	0.396836	0	0.714286	1000	2135.14	530	658.26	5.09176	1.1	1241.53	0	0	80	0	0
-0.659914	0.273345	0	0.714286	1000	2135.14	530	658.26	5.09176	1.1	1241.53	0	0	81	0	0
-0.700561	0.13935	0	0.714286	1000	2135.14	530	658.26	5.09176	1.1	1241.53	0	0	82	0	0
-0.714286	8.74719e-017	0	0.714286	1000	2135.14	530	658.26	5.09176	1.1	1241.53	0	0	83	0	0
-0.700561	-0.13935	0	0.714286	1000	2135.14	530	658.26	5.09176	1.1	1241.53	0	0	84	0	0
-0.659914	-0.273345	0	0.714286	1000	2135.14	530	658.26	5.09176	1.1	1241.53	0	0	85	0	0
-0.593907	-0.396836	0	0.714286	1000	2135.14	530	658.26	5.09176	1.1	1241.53	0	0	86	0	0
-0.505076	-0.505076	0	0.714286	1000	2135.14	530	658.26	5.09176	1.1	1241.53	0	0	87	0	0
-0.396836	-0.593907	0	0.714286	1000	2135.14	530	658.26	5.09176	1.1	1241.53	0	0	88	0	0
-0.273345	-0.659914	0	0.714286	1000	2135.14	530	658.26	5.09176	1.1	1241.53	0	0	89	0	0
-0.13935	-0.700561	0	0.714286	1000	2135.14	530	658.26	5.09176	1.1	1241.53	0	0	90	0	0
-1.31208e-016	-0.714286	0	0.714286	1000	2135.14	530	658.26	5.09176	1.1	1241.53	0	0	91	0	0
0.13935	-0.700561	0	0.714286	1000	2135.14	530	658.26	5.09176	1.1	1241.53	0	0	92	0	0
0.273345	-0.659914	0	0.714286	1000	2135.14	530	658.26	5.09176	1.1	1241.53	0	0	93	0	0
0.396836	-0.593907	0	0.714286	1000	2135.14	530	658.26	5.09176	1.1	1241.53	0	0	94	0	0
0.505076	-0.505076	0	0.714286	1000	2135.14	530	658.26	5.09176	1.1	1241.53	0	0	95	0	0
0.593907	-0.396836	0	0.714286	1000	2135.14	530	658.26	5.09176	1.1	1241.53	0	0	96	0	0
0.659914	-0.273345	0	0.714286	1000	2135.14	530	658.26	5.09176	1.1	1241.53	0	0	97	0	0
0.700561	-0.13935	0	0.714286	1000	2135.14	530	658.26	5.09176	1.1	1241.53	0	0	98	0	0
0.857143	0	0	0.857143	1000	2135.14	530	658.26	5.09176	1.1	1241.53	0	0	99	0	0
0.845453	0.141081	0	0.857143	1000	2135.14	530	658.26	5.09176	1.1	1241.53	0	0	100	0	0
0.8107	0.278314	0	0.857143	1000	2135.14	530	658.26	5.09176	1.1	1241.53	0	0	101	0	0
0.753835	0.407955	0	0.857143	1000	2135.14	530	658.26	5.09176	1.1	1241.53	0	0	102	0	0
0.676406	0.526468	0	0.857143	1000	2135.14	530	658.26	5.09176	1.1	1241.53	0	0	103	0	0
0.580527	0.63062	0	0.857143	1000	2135.14	530	658.26	5.09176	1.1	1241.53	0	0	104	0	0
0.468813	0.717571	0	0.857143	1000	2135.14	530	658.26	5.09176	1.1	1241.53	0	0	105	0	0
0.34431	0.784949	0	0.857143	1000	2135.14	530	658.26	5.09176	1.1	1241.53	0	0	106	0	0
0.210416	0.830915	0	0.857143	1000	2135.14	530	658.26	5.09176	1.1	1241.53	0	0	107	0	0
0.0707823	0.854215	0	0.857143	1000	2135.14	530	658.26	5.09176	1.1	1241.53	0	0	108	0	0
-0.0707823	0.854215	0	0.857143	1000	2135.14	530	658.26	5.09176	1.1	1241.53	0	0	109	0	0
-0.210416	0.830915	0	0.857143	1000	2135.14	530	658.26	5.09176	1.1	1241.53	0	0	110	0	0
-0.34431	0.784949	0	0.857143	1000	2135.14	530	658.26	5.09176	1.1	1241.53	0	0	111	0	0
-0.468813	0.717571	0	0.857143	1000	2135.14	530	658.26	5.09176	1.1	1241.53	0	0	112	0	0
-0.580527	0.63062	0	0.857143	1000	2135.14	530	658.26	5.09176	1.1	1241.53	0	0	113	0	0
-0.676406	0.526468	0	0.857143	1000	2135.14	530	658.26	5.09176	1.1	1241.53	0	0	114	0	0
-0.753835	0.407955	0	0.857143	1000	2135.14	530	658.26	5.09176	1.1	1241.53	0	0	115	0	0
-0.8107	0.278314	0	0.857143	1000	2135.14	530	658.26	5.09176	1.1	1241.53	0	0	116	0	0
-0.845453	0.141081	0	0.857143	1000	2135.14	530	658.26	5.09176	1.1	1241.53	0	0	117	0	0
-0.857143	1.04966e-016	0	0.857143	1000	2135.14	530	658.26	5.09176	1.1	1241.53	0	0	118	0	0
-0.845453	-0.141081	0	0.857143	1000	2135.14	530	658.26	5.09176	1.1	1241.53	0	0	119	0	0
-0.8107	-0.278314	0	0.857143	1000	2135.14	530	658.26	5.09176	1.1	1241.53	0	0	120	0	0
-0.753835	-0.407955	0	0.857143	1000	2135.14	530	658.26	5.09176	1.1	1241.53	0	0	121	0	0
-0.676406	-0.526468	0	0.857143	1000	2135.14	530	658.26	5.09176	1.1	1241.53	0	0	122	0	0
-0.580527	-0.63062	0	0.857143	1000	2135.14	530	658.26	5.09176	1.1	1241.53	0	0	123	0	0
-0.468813	-0.717571	0	0.857143	1000	2135.14	530	658.26	5.09176	1.1	1241.53	0	0	124	0	0
-0.34431	-0.784949	0	0.857143	1000	2135.14	530	658.26	5.09176	1.1	1241.53	0	0	125	0	0
-0.210416	-0.830915	0	0.857143	1000	2135.14	530	658.26	5.09176	1.1	1241.53	0	0	126	0	0
-0.0707823	-0.854215	0	0.857143	1000	2135.14	530	658.26	5.09176	1.1	1241.53	0	0	127	0	0
0.0707823	-0.854215	0	0.857143	1000	2135.14	530	658.26	5.09176	1.1	1241.53	0	0	128	0	0
0.210416	-0.830915	0	0.857143	1000	2135.14	530	658.26	5.09176	1.1	1241.53	0	0	129	0	0
0.34431	-0.784949	0	0.857143	1000	2135.14	530	658.26	5.09176	1.1	1241.53	0	0	130	0	0
0.468813	-0.717571	0	0.857143	1000	2135.14	530	658.26	5.09176	1.1	1241.53	0	0	131	0	0
0.580527	-0.63062	0	0.857143	1000	2135.14	530	658.26	5.09176	1.1	1241.53	0	0	132	0	0
0.676406	-0.526468	0	0.857143	1000	2135.14	530	658.26	5.09176	1.1	1241.53	0	0	133	0	0
0.753835	-0.407955	0	0.857143	1000	2135.14	530	658.26	5.09176	1.1	1241.53	0	0	134	0	0
0.8107	-0.278314	0	0.857143	1000	2135.14	530	658.26	5.09176	1.1	1241.53	0	0	135	0	0
0.845453	-0.141081	0	0.857143	1000	2135.14	530	658.26	5.09176	1.1	1241.53	0	0	136	0	0
1	0	0	1	1000	2135.14	530	658.26	5.09176	1.1	1241.53	0	0	137	0	1
0.989821	0.142315	0	1	1000	2135.14	530	658.26	5.09176	1.1	1241.53	0	0	138	0	1
0.959493	0.281733	0	1	1000	2135.14	530	658.26	5.09176	1.1	1241.53	0	0	139	0	1
0.909632	0.415415	0	1	1000	2135.14	530	658.26	5.09176	1.1	1241.53	0	0	140	0	1
0.841254	0.540641	0	1	1000	2135.14	530	658.26	5.09176	1.1	1241.53	0	0	141	0	1
0.75575	0.654861	0	1	1000	2135.14	530	658.26	5.09176	1.1	1241.53	0	0	142	0	1
0.654861	0.75575	0	1	1000	2135.14	530	658.26	5.09176	1.1	1241.53	0	0	143	0	1
0.540641	0.841254	0	1	1000	2135.14	530	658.26	5.09176	1.1	1241.53	0	0	144	0	1
0.415415	0.909632	0	1	1000	2135.14	530	658.26	5.09176	1.1	1241.53	0	0	145	0	1
0.281733	0.959493	0	1	1000	2135.14	530	658.26	5.09176	1.1	1241.53	0	0	146	0	1
0.142315	0.989821	0	1	1000	2135.14	530	658.26	5.09176	1.1	1241.53	0	0	147	0	1
2.83275e-016	1	0	1	1000	2135.14	530	658.26	5.09176	1.1	1241.53	0	0	148	0	1
-0.142315	0.989821	0	1	1000	2135.14	530	658.26	5.09176	1.1	1241.53	0	0	149	0	1
-0.281733	0.959493	0	1	1000	2135.14	530	658.26	5.09176	1.1	1241.53	0	0	150	0	1
-0.415415	0.909632	0	1	1000	2135.14	530	658.26	5.09176	1.1	1241.53	0	0	151	0	1
-0.540641	0.841254	0	1	1000	2135.14	530	658.26	5.09176	1.1	1241.53	0	0	152	0	1
-0.654861	0.75575	0	1	1000	2135.14	530	658.26	5.09176	1.1	1241.53	0	0	153	0	1
-0.75575	0.654861	0	1	1000	2135.14	530	658.26	5.09176	1.1	1241.53	0	0	154	0	1
-0.841254	0.540641	0	1	1000	2135.14	530	658.26	5.09176	1.1	1241.53	0	0	155	0	1
-0.909632	0.415415	0	1	1000	2135.14	530	658.26	5.09176	1.1	1241.53	0	0	156	0	1
-0.959493	0.281733	0	1	1000	2135.14	530	658.26	5.09176	1.1	1241.53	0	0	157	0	1
-0.989821	0.142315	0	1	1000	2135.14	530	658.26	5.09176	1.1	1241.53	0	0	158	0	1
-1	5.6655e-016	0	1	1000	2135.14	530	658.26	5.09176	1.1	1241.53	0	0	159	0	1
-0.989821	-0.142315	0	1	1000	2135.14	530	658.26	5.09176	1.1	1241.53	0	0	160	0	1
-0.959493	-0.281733	0	1	1000	2135.14	530	658.26	5.09176	1.1	1241.53	0	0	161	0	1
-0.909632	-0.415415	0	1	1000	2135.14	530	658.26	5.09176	1.1	1241.53	0	0	162	0	1
-0.841254	-0.540641	0	1	1000	2135.14	530	658.26	5.09176	1.1	1241.53	0	0	163	0	1
-0.75575	-0.654861	0	1	1000	2135.14	530	658.26	5.09176	1.1	1241.53	0	0	164	0	1
-0.654861	-0.75575	0	1	1000	2135.14	530	658.26	5.09176	1.1	1241.53	0	0	165	0	1
-0.540641	-0.841254	0	1	1000	2135.14	530	658.26	5.09176	1.1	1241.53	0	0	166	0	1
-0.415415	-0.909632	0	1	1000	2135.14	530	658.26	5.09176	1.1	1241.53	0	0	167	0	1
-0.281733	-0.959493	0	1	1000	2135.14	530	658.26	5.09176	1.1	1241.53	0	0	168	0	1
-0.142315	-0.989821	0	1	1000	2135.14	530	658.26	5.09176	1.1	1241.53	0	0	169	0	1
-1.83691e-016	-1	0	1	1000	2135.14	530	658.26	5.09176	1.1	1241.53	0	0	170	0	1
0.142315	-0.989821	0	1	1000	2135.14	530	658.26	5.09176	1.1	1241.53	0	0	171	0	1
0.281733	-0.959493	0	1	1000	2135.14	530	658.26	5.09176	1.1	1241.53	0	0	172	0	1
0.415415	-0.909632	0	1	1000	2135.14	530	658.26	5.09176	1.1	1241.53	0	0	173	0	1
0.540641	-0.841254	0	1	1000	2135.14	530	658.26	5.09176	1.1	1241.53	0	0	174	0	1
0.654861	-0.75575	0	1	1000	2135.14	530	658.26	5.09176	1.1	1241.53	0	0	175	0	1
0.75575	-0.654861	0	1	1000	2135.14	530	658.26	5.09176	1.1	1241.53	0	0	176	0	1
0.841254	-0.540641	0	1	1000	2135.14	530	658.26	5.09176	1.1	1241.53	0	0	177	0	1
0.909632	-0.415415	0	1	1000	2135.14	530	658.26	5.09176	1.1	1241.53	0	0	178	0	1
0.959493	-0.281733	0	1	1000	2135.14	530	658.26	5.09176	1.1	1241.53	0	0	179	0	1
0.989821	-0.142315	0	1	1000	2135.14	530	658.26	5.09176	1.1	1241.53	0	0	180	0	1
zone t="Z = 1" I = 1 J = 1 K = 181
0	0	0.000212	0	1000	2135.14	530	658.26	5.09176	1.1	1241.53	0	0	0	1	0
0.142857	0	0.000212	0.142857	1000	2135.14	530	658.26	5.09176	1.1	1241.53	0	0	1	1	0
0.101015	0.101015	0.000212	0.142857	1000	2135.14	530	658.26	5.09176	1.1	1241.53	0	0	2	1	0
0	0.142857	0.000212	0.142857	1000	2135.14	530	658.26	5.09176	1.1	1241.53	0	0	3	1	0
-0.101015	0.101015	0.000212	0.142857	1000	2135.14	530	658.26	5.09176	1.1	1241.53	0	0	4	1	0
-0.142857	0	0.000212	0.142857	1000	2135.14	530	658.26	5.09176	1.1	1241.53	0	0	5	1	0
-0.101015	-0.101015	0.000212	0.142857	1000	2135.14	530	658.26	5.09176	1.1	1241.53	0	0	6	1	0
0	-0.142857	0.000212	0.142857	1000	2135.14	530	658.26	5.09176	1.1	1241.53	0	0	7	1	0
0.101015	-0.101015	0.000212	0.142857	1000	2135.14	530	658.26	5.09176	1.1	1241.53	0	0	8	1	0
0.285714	0	0.000212	0.285714	1000	2135.14	530	658.26	5.09176	1.1	1241.53	0	0	9	1	0
0.252987	0.132778	0.000212	0.285714	1000	2135.14	530	658.26	5.09176	1.1	1241.53	0	0	10	1	0
0.162304	0.235138	0.000212	0.285714	1000	2135.14	530	658.26	5.09176	1.1	1241.53	0	0	11	1	0
0.0344391	0.283631	0.000212	0.285714	1000	2135.14	530	658.26	5.09176	1.1	1241.53	0	0	12	1	0
-0.101316	0.267147	0.000212	0.285714	1000	2135.14	530	658.26	5.09176	1.1	1241.53	0	0	13	1	0
-0.21386	0.189464	0.000212	0.285714	1000	2135.14	530	658.26	5.09176	1.1	1241.53	0	0	14	1	0
-0.277412	0.0683759	0.000212	0.285714	1000	2135.14	530	658.26	5.09176	1.1	1241.53	0	0	15	1	0
-0.277412	-0.0683759	0.000212	0.285714	1000	2135.14	530	658.26	5.09176	1.1	1241.53	0	0	16	1	0
-0.21386	-0.189464	0.000212	0.285714	1000	2135.14	530	658.26	5.09176	1.1	1241.53	0	0	17	1	0
-0.101316	-0.267147	0.000212	0.285714	1000	2135.14	530	658.26	5.09176	1.1	1241.53	0	0	18	1	0
0.0344391	-0.283631	0.000212	0.285714	1000	2135.14	530	658.26	5.09176	1.1	1241.53	0	0	19	1	0
0.162304	-0.235138	0.000212	0.285714	1000	2135.14	530	658.26	5.09176	1.1	1241.53	0	0	20	1	0
0.252987	-0.132778	0.000212	0.285714	1000	2135.14	530	658.26	5.09176	1.1	1241.53	0	0	21	1	0
0.428571	0	0.000212	0.428571	1000	2135.14	530	658.26	5.09176	1.1	1241.53	0	0	22	1	0
0.40535	0.139157	0.000212	0.428571	1000	2135.14	530	658.26	5.09176	1.1	1241.53	0	0	23	1	0
0.338203	0.263234	0.000212	0.428571	1000	2135.14	530	658.26	5.09176	1.1	1241.53	0	0	24	1	0
0.234406	0.358786	0.000212	0.428571	1000	2135.14	530	658.26	5.09176	1.1	1241.53	0	0	25	1	0
0.105208	0.415457	0.000212	0.428571	1000	2135.14	530	658.26	5.09176	1.1	1241.53	0	0	26	1	0
-0.0353911	0.427108	0.000212	0.428571	1000	2135.14	530	658.26	5.09176	1.1	1241.53	0	0	27	1	0
-0.172155	0.392474	0.000212	0.428571	1000	2135.14	530	658.26	5.09176	1.1	1241.53	0	0	28	1	0
-0.290264	0.31531	0.000212	0.428571	1000	2135.14	530	658.26	5.09176	1.1	1241.53	0	0	29	1	0
-0.376917	0.203977	0.000212	0.428571	1000	2135.14	530	658.26	5.09176	1.1	1241.53	0	0	30	1	0
-0.422726	0.0705405	0.000212	0.428571	1000	2135.14	530	658.26	5.09176	1.1	1241.53	0	0	31	1	0
-0.422726	-0.0705405	0.000212	0.428571	1000	2135.14	530	658.26	5.09176	1.1	1241.53	0	0	32	1	0
-0.376917	-0.203977	0.000212	0.428571	1000	2135.14	530	658.26	5.09176	1.1	1241.53	0	0	33	1	0
-0.290264	-0.31531	0.000212	0.428571	1000	2135.14	530	658.26	5.09176	1.1	1241.53	0	0	34	1	0
-0.172155	-0.392474	0.000212	0.428571	1000	2135.14	530	658.26	5.09176	1.1	1241.53	0	0	35	1	0
-0.0353911	-0.427108	0.000212	0.428571	1000	2135.14	530	658.26	5.09176	1.1	1241.53	0	0	36	1	0
0.105208	-0.415457	0.000212	0.428571	1000	2135.14	530	658.26	5.09176	1.1	1241.53	0	0	37	1	0
0.234406	-0.358786	0.000212	0.428571	1000	2135.14	530	658.26	5.09176	1.1	1241.53	0	0	38	1	0
0.338203	-0.263234	0.000212	0.428571	1000	2135.14	530	658.26	5.09176	1.1	1241.53	0	0	39	1	0
0.40535	-0.139157	0.000212	0.428571	1000	2135.14	530	658.26	5.09176	1.1	1241.53	0	0	40	1	0
0.571429	0	0.000212	0.571429	1000	2135.14	530	658.26	5.09176	1.1	1241.53	0	0	41	1	0
0.554824	0.136752	0.000212	0.571429	1000	2135.14	530	658.26	5.09176	1.1	1241.53	0	0	42	1	0
0.505975	0.265556	0.000212	0.571429	1000	2135.14	530	658.26	5.09176	1.1	1241.53	0	0	43	1	0
0.42772	0.378927	0.000212	0.571429	1000	2135.14	530	658.26	5.09176	1.1	1241.53	0	0	44	1	0
0.324608	0.470276	0.000212	0.571429	1000	2135.14	530	658.26	5.09176	1.1	1241.53	0	0	45	1	0
0.202631	0.534295	0.000212	0.571429	1000	2135.14	530	658.26	5.09176	1.1	1241.53	0	0	46	1	0
0.0688781	0.567262	0.000212	0.571429	1000	2135.14	530	658.26	5.09176	1.1	1241.53	0	0	47	1	0
-0.0688781	0.567262	0.000212	0.571429	1000	2135.14	530	658.26	5.09176	1.1	1241.53	0	0	48	1	0
-0.202631	0.534295	0.000212	0.571429	1000	2135.14	530	658.26	5.09176	1.1	1241.53	0	0	49	1	0
-0.324608	0.470276	0.000212	0.571429	1000	2135.14	530	658.26	5.09176	1.1	1241.53	0	0	50	1	0
-0.42772	0.378927	0.000212	0.571429	1000	2135.14	530	658.26	5.09176	1.1	1241.53	0	0	51	1	0
-0.505975	0.265556	0.000212	0.571429	1000	2135.14	530	658.26	5.09176	1.1	1241.53	0	0	52	1	0
-0.554824	0.136752	0.000212	0.571429	1000	2135.14	530	658.26	5.09176	1.1	1241.53	0	0	53	1	0
-0.571429	0	0.000212	0.571429	1000	2135.14	530	658.26	5.09176	1.1	1241.53	0	0	54	1	0
-0.554824	-0.136752	0.000212	0.571429	1000	2135.14	530	658.26	5.09176	1.1	1241.53	0	0	55	1	0
-0.505975	-0.265556	0.000212	0.571429	1000	2135.14	530	658.26	5.09176	1.1	1241.53	0	0	56	1	0
-0.42772	-0.378927	0.000212	0.571429	1000	2135.14	530	658.26	5.09176	1.1	1241.53	0	0	57	1	0
-0.324608	-0.470276	0.000212	0.571429	1000	2135.14	530	658.26	5.09176	1.1	1241.53	0	0	58	1	0
-0.202631	-0.534295	0.000212	0.571429	1000	2135.14	530	658.26	5.09176	1.1	1241.53	0	0	59	1	0
-0.0688781	-0.567262	0.000212	0.571429	1000	2135.14	530	658.26	5.09176	1.1	1241.53	0	0	60	1	0
0.0688781	-0.567262	0.000212	0.571429	1000	2135.14	530	658.26	5.09176	1.1	1241.53	0	0	61	1	0
0.202631	-0.534295	0.000212	0.571429	1000	2135.14	530	658.26	5.09176	1.1	1241.53	0	0	62	1	0
0.324608	-0.470276	0.000212	0.571429	1000	2135.14	530	658.26	5.09176	1.1	1241.53	0	0	63	1	0
0.42772	-0.378927	0.000212	0.571429	1000	2135.14	530	658.26	5.09176	1.1	1241.53	0	0	64	1	0
0.505975	-0.265556	0.000212	0.571429	1000	2135.14	530	658.26	5.09176	1.1	1241.53	0	0	65	1	0
0.554824	-0.136752	0.000212	0.571429	1000	2135.14	530	658.26	5.09176	1.1	1241.53	0	0	66	1	0
0.714286	0	0.000212	0.714286	1000	2135.14	530	658.26	5.09176	1.1	1241.53	0	0	67	1	0
0.700561	0.13935	0.000212	0.714286	1000	2135.14	530	658.26	5.09176	1.1	1241.53	0	0	68	1	0
0.659914	0.273345	0.000212	0.714286	1000	2135.14	530	658.26	5.09176	1.1	1241.53	0	0	69	1	0
0.593907	0.396836	0.000212	0.714286	1000	2135.14	530	658.26	5.09176	1.1	1241.53	0	0	70	1	0
0.505076	0.505076	0.000212	0.714286	1000	2135.14	530	658.26	5.09176	1.1	1241.53	0	0	71	1	0
0.396836	0.593907	0.000212	0.714286	1000	2135.14	530	658.26	5.09176	1.1	1241.53	0	0	72	1	0
0.273345	0.659914	0.000212	0.714286	1000	2135.14	530	658.26	5.09176	1.1	1241.53	0	0	73	1	0
0.13935	0.700561	0.000212	0.714286	1000	2135.14	530	658.26	5.09176	1.1	1241.53	0	0	74	1	0
0	0.714286	0.000212	0.714286	1000	2135.14	530	658.26	5.09176	1.1	1241.53	0	0	75	1	0
-0.13935	0.700561	0.000212	0.714286	1000	2135.14	530	658.26	5.09176	1.1	1241.53	0	0	76	1	0
-0.273345	0.659914	0.000212	0.714286	1000	2135.14	530	658.26	5.09176	1.1	1241.53	0	0	77	1	0
-0.396836	0.593907	0.000212	0.714286	1000	2135.14	530	658.26	5.09176	1.1	1241.53	0	0	78	1	0
-0.505076	0.505076	0.000212	0.714286	1000	2135.14	530	658.26	5.09176	1.1	1241.53	0	0	79	1	0
-0.593907	0.396836	0.000212	0.714286	1000	2135.14	530	658.26	5.09176	1.1	1241.53	0	0	80	1	0
-0.659914	0.273345	0.000212	0.714286	1000	2135.14	530	658.26	5.09176	1.1	1241.53	0	0	81	1	0
-0.700561	0.13935	0.000212	0.714286	1000	2135.14	530	658.26	5.09176	1.1	1241.53	0	0	82	1	0
-0.714286	0	0.000212	0.714286	1000	2135.14	530	658.26	5.09176	1.1	1241.53	0	0	83	1	0
-0.700561	-0.13935	0.000212	0.714286	1000	2135.14	530	658.26	5.09176	1.1	1241.53	0	0	84	1	0
-0.659914	-0.273345	0.000212	0.714286	1000	2135.14	530	658.26	5.09176	1.1	1241.53	0	0	85	1	0
-0.593907	-0.396836	0.000212	0.714286	1000	2135.14	530	658.26	5.09176	1.1	1241.53	0	0	86	1	0
-0.505076	-0.505076	0.000212	0.714286	1000	2135.14	530	658.26	5.09176	1.1	1241.53	0	0	87	1	0
-0.396836	-0.593907	0.000212	0.714286	1000	2135.14	530	658.26	5.09176	1.1	1241.53	0	0	88	1	0
-0.273345	-0.659914	0.000212	0.714286	1000	2135.14	530	658.26	5.09176	1.1	1241.53	0	0	89	1	0
-0.13935	-0.700561	0.000212	0.714286	1000	2135.14	530	658.26	5.09176	1.1	1241.53	0	0	90	1	0
0	-0.714286	0.000212	0.714286	1000	2135.14	530	658.26	5.09176	1.1	1241.53	0	0	91	1	0
0.13935	-0.700561	0.000212	0.714286	1000	2135.14	530	658.26	5.09176	1.1	1241.53	0	0	92	1	0
0.273345	-0.659914	0.000212	0.714286	1000	2135.14	530	658.26	5.09176	1.1	1241.53	0	0	93	1	0
0.396836	-0.593907	0.000212	0.714286	1000	2135.14	530	658.26	5.09176	1.1	1241.53	0	0	94	1	0
0.505076	-0.505076	0.000212	0.714286	1000	2135.14	530	658.26	5.09176	1.1	1241.53	0	0	95	1	0
0.593907	-0.396836	0.000212	0.714286	1000	2135.14	530	658.26	5.09176	1.1	1241.53	0	0	96	1	0
0.659914	-0.273345	0.000212	0.714286	1000	2135.14	530	658.26	5.09176	1.1	1241.53	0	0	97	1	0
0.700561	-0.13935	0.000212	0.714286	1000	2135.14	530	658.26	5.09176	1.1	1241.53	0	0	98	1	0
0.857143	0	0.000212	0.857143	1000	2135.14	530	658.26	5.09176	1.1	1241.53	0	0	99	1	0
0.845453	0.141081	0.000212	0.857143	1000	2135.14	530	658.26	5.09176	1.1	1241.53	0	0	100	1	0
0.8107	0.278314	0.000212	0.857143	1000	2135.14	530	658.26	5.09176	1.1	1241.53	0	0	101	1	0
0.753835	0.407955	0.000212	0.857143	1000	2135.14	530	658.26	5.09176	1.1	1241.53	0	0	102	1	0
0.676406	0.526468	0.000212	0.857143	1000	2135.14	530	658.26	5.09176	1.1	1241.53	0	0	103	1	0
0.580527	0.63062	0.000212	0.857143	1000	2135.14	530	658.26	5.09176	1.1	1241.53	0	0	104	1	0
0.468813	0.717571	0.000212	0.857143	1000	2135.14	530	658.26	5.09176	1.1	1241.53	0	0	105	1	0
0.34431	0.784949	0.000212	0.857143	1000	2135.14	530	658.26	5.09176	1.1	1241.53	0	0	106	1	0
0.210416	0.830915	0.000212	0.857143	1000	2135.14	530	658.26	5.09176	1.1	1241.53	0	0	107	1	0
0.0707823	0.854215	0.000212	0.857143	1000	2135.14	530	658.26	5.09176	1.1	1241.53	0	0	108	1	0
-0.0707823	0.854215	0.000212	0.857143	1000	2135.14	530	658.26	5.09176	1.1	1241.53	0	0	109	1	0
-0.210416	0.830915	0.000212	0.857143	1000	2135.14	530	658.26	5.09176	1.1	1241.53	0	0	110	1	0
-0.34431	0.784949	0.000212	0.857143	1000	2135.14	530	658.26	5.09176	1.1	1241.53	0	0	111	1	0
-0.468813	0.717571	0.000212	0.857143	1000	2135.14	530	658.26	5.09176	1.1	1241.53	0	0	112	1	0
-0.580527	0.63062	0.000212	0.857143	1000	2135.14	530	658.26	5.09176	1.1	1241.53	0	0	113	1	0
-0.676406	0.526468	0.000212	0.857143	1000	2135.14	530	658.26	5.09176	1.1	1241.53	0	0	114	1	0
-0.753835	0.407955	0.000212	0.857143	1000	2135.14	530	658.26	5.09176	1.1	1241.53	0	0	115	1	0
-0.8107	0.278314	0.000212	0.857143	1000	2135.14	530	658.26	5.09176	1.1	1241.53	0	0	116	1	0
-0.845453	0.141081	0.000212	0.857143	1000	2135.14	530	658.26	5.09176	1.1	1241.53	0	0	117	1	0
-0.857143	0	0.000212	0.857143	1000	2135.14	530	658.26	5.09176	1.1	1241.53	0	0	118	1	0
-0.845453	-0.141081	0.000212	0.857143	1000	2135.14	530	658.26	5.09176	1.1	1241.53	0	0	119	1	0
-0.8107	-0.278314	0.000212	0.857143	1000	2135.14	530	658.26	5.09176	1.1	1241.53	0	0	120	1	0
-0.753835	-0.407955	0.000212	0.857143	1000	2135.14	530	658.26	5.09176	1.1	1241.53	0	0	121	1	0
-0.676406	-0.526468	0.000212	0.857143	1000	2135.14	530	658.26	5.09176	1.1	1241.53	0	0	122	1	0
-0.580527	-0.63062	0.000212	0.857143	1000	2135.14	530	658.26	5.09176	1.1	1241.53	0	0	123	1	0
-0.468813	-0.717571	0.000212	0.857143	1000	2135.14	530	658.26	5.09176	1.1	1241.53	0	0	124	1	0
-0.34431	-0.784949	0.000212	0.857143	1000	2135.14	530	658.26	5.09176	1.1	1241.53	0	0	125	1	0
-0.210416	-0.830915	0.000212	0.857143	1000	2135.14	530	658.26	5.09176	1.1	1241.53	0	0	126	1	0
-0.0707823	-0.854215	0.000212	0.857143	1000	2135.14	530	658.26	5.09176	1.1	1241.53	0	0	127	1	0
0.0707823	-0.854215	0.000212	0.857143	1000	2135.14	530	658.26	5.09176	1.1	1241.53	0	0	128	1	0
0.210416	-0.830915	0.000212	0.857143	1000	2135.14	530	658.26	5.09176	1.1	1241.53	0	0	129	1	0
0.34431	-0.784949	0.000212	0.857143	1000	2135.14	530	658.26	5.09176	1.1	1241.53	0	0	130	1	0
0.468813	-0.717571	0.000212	0.857143	1000	2135.14	530	658.26	5.09176	1.1	1241.53	0	0	131	1	0
0.580527	-0.63062	0.000212	0.857143	1000	2135.14	530	658.26	5.09176	1.1	1241.53	0	0	132	1	0
0.676406	-0.526468	0.000212	0.857143	1000	2135.14	530	658.26	5.09176	1.1	1241.53	0	0	133	1	0
0.753835	-0.407955	0.000212	0.857143	1000	2135.14	530	658.26	5.09176	1.1	1241.53	0	0	134	1	0
0.8107	-0.278314	0.000212	0.857143	1000	2135.14	530	658.26	5.09176	1.1	1241.53	0	0	135	1	0
0.845453	-0.141081	0.000212	0.857143	1000	2135.14	530	658.26	5.09176	1.1	1241.53	0	0	136	1	0
1	0	0.000212	1	1000	2135.14	530	658.26	5.09176	1.1	1241.53	0	0	137	1	1
0.989821	0.142315	0.000212	1	1000	2135.14	530	658.26	5.09176	1.1	1241.53	0	0	138	1	1
0.959493	0.281733	0.000212	1	1000	2135.14	530	658.26	5.09176	1.1	1241.53	0	0	139	1	1
0.909632	0.415415	0.000212	1	1000	2135.14	530	658.26	5.09176	1.1	1241.53	0	0	140	1	1
0.841254	0.540641	0.000212	1	1000	2135.14	530	658.26	5.09176	1.1	1241.53	0	0	141	1	1
0.75575	0.654861	0.000212	1	1000	2135.14	530	658.26	5.09176	1.1	1241.53	0	0	142	1	1
0.654861	0.75575	0.000212	1	1000	2135.14	530	658.26	5.09176	1.1	1241.53	0	0	143	1	1
0.540641	0.841254	0.000212	1	1000	2135.14	530	658.26	5.09176	1.1	1241.53	0	0	144	1	1
0.415415	0.909632	0.000212	1	1000	2135.14	530	658.26	5.09176	1.1	1241.53	0	0	145	1	1
0.281733	0.959493	0.000212	1	1000	2135.14	530	658.26	5.09176	1.1	1241.53	0	0	146	1	1
0.142315	0.989821	0.000212	1	1000	2135.14	530	658.26	5.09176	1.1	1241.53	0	0	147	1	1
2.83275e-016	1	0.000212	1	1000	2135.14	530	658.26	5.09176	1.1	1241.53	0	0	148	1	1
-0.142315	0.989821	0.000212	1	1000	2135.14	530	658.26	5.09176	1.1	1241.53	0	0	149	1	1
-0.281733	0.959493	0.000212	1	1000	2135.14	530	658.26	5.09176	1.1	1241.53	0	0	150	1	1
-0.415415	0.909632	0.000212	1	1000	2135.14	530	658.26	5.09176	1.1	1241.53	0	0	151	1	1
-0.540641	0.841254	0.000212	1	1000	2135.14	530	658.26	5.09176	1.1	1241.53	0	0	152	1	1
-0.654861	0.75575	0.000212	1	1000	2135.14	530	658.26	5.09176	1.1	1241.53	0	0	153	1	1
-0.75575	0.654861	0.000212	1	1000	2135.14	530	658.26	5.09176	1.1	1241.53	0	0	154	1	1
-0.841254	0.540641	0.000212	1	1000	2135.14	530	658.26	5.09176	1.1	1241.53	0	0	155	1	1
-0.909632	0.415415	0.000212	1	1000	2135.14	530	658.26	5.09176	1.1	1241.53	0	0	156	1	1
-0.959493	0.281733	0.000212	1	1000	2135.14	530	658.26	5.09176	1.1	1241.53	0	0	157	1	1