VARIABLES = "X(in)","Y(in)","Z(in)"
TITLE = "Initial Wall Plot"
text  x=5  y=93  t="Initial Wall Plot"
zone t="K = 0" I =37 J = 1 K = 1
1	0	0
0.984808	0.173648	0
0.939693	0.34202	0
0.866025	0.5	0
0.766044	0.642788	0
0.642788	0.766044	0
0.5	0.866025	0
0.34202	0.939693	0
0.173648	0.984808	0
0	1	0
-0.173648	0.984808	0
-0.34202	0.939693	0
-0.5	0.866025	0
-0.642788	0.766044	0
-0.766044	0.642788	0
-0.866025	0.5	0
-0.939693	0.34202	0
-0.984808	0.173648	0
-1	0	0
-0.984808	-0.173648	0
-0.939693	-0.34202	0
-0.866025	-0.5	0
-0.766044	-0.642788	0
-0.642788	-0.766044	0
-0.5	-0.866025	0
-0.34202	-0.939693	0
-0.173648	-0.984808	0
0	-1	0
0.173648	-0.984808	0
0.34202	-0.939693	0
0.5	-0.866025	0
0.642788	-0.766044	0
0.766044	-0.642788	0
0.866025	-0.5	0
0.939693	-0.34202	0
0.984808	-0.173648	0
1	0	0

zone t="K = 1" I =37 J = 1 K = 1
1	0	0.000212
0.984808	0.173648	0.000212
0.939693	0.34202	0.000212
0.866025	0.5	0.000212
0.766044	0.642788	0.000212
0.642788	0.766044	0.000212
0.5	0.866025	0.000212
0.34202	0.939693	0.000212
0.173648	0.984808	0.000212
0	1	0.000212
-0.173648	0.984808	0.000212
-0.34202	0.939693	0.000212
-0.5	0.866025	0.000212
-0.642788	0.766044	0.000212
-0.766044	0.642788	0.000212
-0.866025	0.5	0.000212
-0.939693	0.34202	0.000212
-0.984808	0.173648	0.000212
-1	0	0.000212
-0.984808	-0.173648	0.000212
-0.939693	-0.34202	0.000212
-0.866025	-0.5	0.000212
-0.766044	-0.642788	0.000212
-0.642788	-0.766044	0.000212
-0.5	-0.866025	0.000212
-0.34202	-0.939693	0.000212
-0.173648	-0.984808	0.000212
0	-1	0.000212
0.173648	-0.984808	0.000212
0.34202	-0.939693	0.000212
0.5	-0.866025	0.000212
0.642788	-0.766044	0.000212
0.766044	-0.642788	0.000212
0.866025	-0.5	0.000212
0.939693	-0.34202	0.000212
0.984808	-0.173648	0.000212
1	0	0.000212

zone t="K = 2" I =37 J = 1 K = 1
1	0	0.000847
0.984808	0.173648	0.000847
0.939693	0.34202	0.000847
0.866025	0.5	0.000847
0.766044	0.642788	0.000847
0.642788	0.766044	0.000847
0.5	0.866025	0.000847
0.34202	0.939693	0.000847
0.173648	0.984808	0.000847
0	1	0.000847
-0.173648	0.984808	0.000847
-0.34202	0.939693	0.000847
-0.5	0.866025	0.000847
-0.642788	0.766044	0.000847
-0.766044	0.642788	0.000847
-0.866025	0.5	0.000847
-0.939693	0.34202	0.000847
-0.984808	0.173648	0.000847
-1	0	0.000847
-0.984808	-0.173648	0.000847
-0.939693	-0.34202	0.000847
-0.866025	-0.5	0.000847
-0.766044	-0.642788	0.000847
-0.642788	-0.766044	0.000847
-0.5	-0.866025	0.000847
-0.34202	-0.939693	0.000847
-0.173648	-0.984808	0.000847
0	-1	0.000847
0.173648	-0.984808	0.000847
0.34202	-0.939693	0.000847
0.5	-0.866025	0.000847
0.642788	-0.766044	0.000847
0.766044	-0.642788	0.000847
0.866025	-0.5	0.000847
0.939693	-0.34202	0.000847
0.984808	-0.173648	0.000847
1	0	0.000847

zone t="K = 3" I =37 J = 1 K = 1
1	0	0.00191
0.984808	0.173648	0.00191
0.939693	0.34202	0.00191
0.866025	0.5	0.00191
0.766044	0.642788	0.00191
0.642788	0.766044	0.00191
0.5	0.866025	0.00191
0.34202	0.939693	0.00191
0.173648	0.984808	0.00191
0	1	0.00191
-0.173648	0.984808	0.00191
-0.34202	0.939693	0.00191
-0.5	0.866025	0.00191
-0.642788	0.766044	0.00191
-0.766044	0.642788	0.00191
-0.866025	0.5	0.00191
-0.939693	0.34202	0.00191
-0.984808	0.173648	0.00191
-1	0	0.00191
-0.984808	-0.173648	0.00191
-0.939693	-0.34202	0.00191
-0.866025	-0.5	0.00191
-0.766044	-0.642788	0.00191
-0.642788	-0.766044	0.00191
-0.5	-0.866025	0.00191
-0.34202	-0.939693	0.00191
-0.173648	-0.984808	0.00191
0	-1	0.00191
0.173648	-0.984808	0.00191
0.34202	-0.939693	0.00191
0.5	-0.866025	0.00191
0.642788	-0.766044	0.00191
0.766044	-0.642788	0.00191
0.866025	-0.5	0.00191
0.939693	-0.34202	0.00191
0.984808	-0.173648	0.00191
1	0	0.00191

zone t="K = 4" I =37 J = 1 K = 1
1.00001	0	0.003404
0.984818	0.17365	0.003404
0.939702	0.342024	0.003404
0.866034	0.500005	0.003404
0.766052	0.642794	0.003404
0.642794	0.766052	0.003404
0.500005	0.866034	0.003404
0.342024	0.939702	0.003404
0.17365	0.984818	0.003404
0	1.00001	0.003404
-0.17365	0.984818	0.003404
-0.342024	0.939702	0.003404
-0.500005	0.866034	0.003404
-0.642794	0.766052	0.003404
-0.766052	0.642794	0.003404
-0.866034	0.500005	0.003404
-0.939702	0.342024	0.003404
-0.984818	0.17365	0.003404
-1.00001	0	0.003404
-0.984818	-0.17365	0.003404
-0.939702	-0.342024	0.003404
-0.866034	-0.500005	0.003404
-0.766052	-0.642794	0.003404
-0.642794	-0.766052	0.003404
-0.500005	-0.866034	0.003404
-0.342024	-0.939702	0.003404
-0.17365	-0.984818	0.003404
0	-1.00001	0.003404
0.17365	-0.984818	0.003404
0.342024	-0.939702	0.003404
0.500005	-0.866034	0.003404
0.642794	-0.766052	0.003404
0.766052	-0.642794	0.003404
0.866034	-0.500005	0.003404
0.939702	-0.342024	0.003404
0.984818	-0.17365	0.003404
1.00001	0	0.003404

zone t="K = 5" I =37 J = 1 K = 1
1.00001	0	0.005335
0.984818	0.17365	0.005335
0.939702	0.342024	0.005335
0.866034	0.500005	0.005335
0.766052	0.642794	0.005335
0.642794	0.766052	0.005335
0.500005	0.866034	0.005335
0.342024	0.939702	0.005335
0.17365	0.984818	0.005335
0	1.00001	0.005335
-0.17365	0.984818	0.005335
-0.342024	0.939702	0.005335
-0.500005	0.866034	0.005335
-0.642794	0.766052	0.005335
-0.766052	0.642794	0.005335
-0.866034	0.500005	0.005335
-0.939702	0.342024	0.005335
-0.984818	0.17365	0.005335
-1.00001	0	0.005335
-0.984818	-0.17365	0.005335
-0.939702	-0.342024	0.005335
-0.866034	-0.500005	0.005335
-0.766052	-0.642794	0.005335
-0.642794	-0.766052	0.005335
-0.500005	-0.866034	0.005335
-0.342024	-0.939702	0.005335
-0.17365	-0.984818	0.005335
0	-1.00001	0.005335
0.17365	-0.984818	0.005335
0.342024	-0.939702	0.005335
0.500005	-0.866034	0.005335
0.642794	-0.766052	0.005335
0.766052	-0.642794	0.005335
0.866034	-0.500005	0.005335
0.939702	-0.342024	0.005335
0.984818	-0.17365	0.005335
1.00001	0	0.005335

zone t="K = 6" I =37 J = 1 K = 1
1.00003	0	0.00771
0.984837	0.173653	0.00771
0.939721	0.34203	0.00771
0.866051	0.500015	0.00771
0.766067	0.642807	0.00771
0.642807	0.766067	0.00771
0.500015	0.866051	0.00771
0.34203	0.939721	0.00771
0.173653	0.984837	0.00771
0	1.00003	0.00771
-0.173653	0.984837	0.00771
-0.34203	0.939721	0.00771
-0.500015	0.866051	0.00771
-0.642807	0.766067	0.00771
-0.766067	0.642807	0.00771
-0.866051	0.500015	0.00771
-0.939721	0.34203	0.00771
-0.984837	0.173653	0.00771
-1.00003	0	0.00771
-0.984837	-0.173653	0.00771
-0.939721	-0.34203	0.00771
-0.866051	-0.500015	0.00771
-0.766067	-0.642807	0.00771
-0.642807	-0.766067	0.00771
-0.500015	-0.866051	0.00771
-0.34203	-0.939721	0.00771
-0.173653	-0.984837	0.00771
0	-1.00003	0.00771
0.173653	-0.984837	0.00771
0.34203	-0.939721	0.00771
0.500015	-0.866051	0.00771
0.642807	-0.766067	0.00771
0.766067	-0.642807	0.00771
0.866051	-0.500015	0.00771
0.939721	-0.34203	0.00771
0.984837	-0.173653	0.00771
1.00003	0	0.00771

zone t="K = 7" I =37 J = 1 K = 1
1.00006	0	0.010539
0.984867	0.173659	0.010539
0.939749	0.342041	0.010539
0.866077	0.50003	0.010539
0.76609	0.642826	0.010539
0.642826	0.76609	0.010539
0.50003	0.866077	0.010539
0.342041	0.939749	0.010539
0.173659	0.984867	0.010539
0	1.00006	0.010539
-0.173659	0.984867	0.010539
-0.342041	0.939749	0.010539
-0.50003	0.866077	0.010539
-0.642826	0.76609	0.010539
-0.76609	0.642826	0.010539
-0.866077	0.50003	0.010539
-0.939749	0.342041	0.010539
-0.984867	0.173659	0.010539
-1.00006	0	0.010539
-0.984867	-0.173659	0.010539
-0.939749	-0.342041	0.010539
-0.866077	-0.50003	0.010539
-0.76609	-0.642826	0.010539
-0.642826	-0.76609	0.010539
-0.50003	-0.866077	0.010539
-0.342041	-0.939749	0.010539
-0.173659	-0.984867	0.010539
0	-1.00006	0.010539
0.173659	-0.984867	0.010539
0.342041	-0.939749	0.010539
0.50003	-0.866077	0.010539
0.642826	-0.76609	0.010539
0.76609	-0.642826	0.010539
0.866077	-0.50003	0.010539
0.939749	-0.342041	0.010539
0.984867	-0.173659	0.010539
1.00006	0	0.010539

zone t="K = 8" I =37 J = 1 K = 1
1.0001	0	0.01383
0.984906	0.173666	0.01383
0.939787	0.342054	0.01383
0.866112	0.50005	0.01383
0.766121	0.642852	0.01383
0.642852	0.766121	0.01383
0.50005	0.866112	0.01383
0.342054	0.939787	0.01383
0.173666	0.984906	0.01383
0	1.0001	0.01383
-0.173666	0.984906	0.01383
-0.342054	0.939787	0.01383
-0.50005	0.866112	0.01383
-0.642852	0.766121	0.01383
-0.766121	0.642852	0.01383
-0.866112	0.50005	0.01383
-0.939787	0.342054	0.01383
-0.984906	0.173666	0.01383
-1.0001	0	0.01383
-0.984906	-0.173666	0.01383
-0.939787	-0.342054	0.01383
-0.866112	-0.50005	0.01383
-0.766121	-0.642852	0.01383
-0.642852	-0.766121	0.01383
-0.50005	-0.866112	0.01383
-0.342054	-0.939787	0.01383
-0.173666	-0.984906	0.01383
0	-1.0001	0.01383
0.173666	-0.984906	0.01383
0.342054	-0.939787	0.01383
0.50005	-0.866112	0.01383
0.642852	-0.766121	0.01383
0.766121	-0.642852	0.01383
0.866112	-0.50005	0.01383
0.939787	-0.342054	0.01383
0.984906	-0.173666	0.01383
1.0001	0	0.01383

zone t="K = 9" I =37 J = 1 K = 1
1.00015	0	0.017594
0.984955	0.173674	0.017594
0.939834	0.342071	0.017594
0.866155	0.500075	0.017594
0.766159	0.642884	0.017594
0.642884	0.766159	0.017594
0.500075	0.866155	0.017594
0.342071	0.939834	0.017594
0.173674	0.984955	0.017594
0	1.00015	0.017594
-0.173674	0.984955	0.017594
-0.342071	0.939834	0.017594
-0.500075	0.866155	0.017594
-0.642884	0.766159	0.017594
-0.766159	0.642884	0.017594
-0.866155	0.500075	0.017594
-0.939834	0.342071	0.017594
-0.984955	0.173674	0.017594
-1.00015	0	0.017594
-0.984955	-0.173674	0.017594
-0.939834	-0.342071	0.017594
-0.866155	-0.500075	0.017594
-0.766159	-0.642884	0.017594
-0.642884	-0.766159	0.017594
-0.500075	-0.866155	0.017594
-0.342071	-0.939834	0.017594
-0.173674	-0.984955	0.017594
0	-1.00015	0.017594
0.173674	-0.984955	0.017594
0.342071	-0.939834	0.017594
0.500075	-0.866155	0.017594
0.642884	-0.766159	0.017594
0.766159	-0.642884	0.017594
0.866155	-0.500075	0.017594
0.939834	-0.342071	0.017594
0.984955	-0.173674	0.017594
1.00015	0	0.017594

zone t="K = 10" I =37 J = 1 K = 1
1.00024	0	0.021842
0.985044	0.17369	0.021842
0.939918	0.342102	0.021842
0.866233	0.50012	0.021842
0.766228	0.642942	0.021842
0.642942	0.766228	0.021842
0.50012	0.866233	0.021842
0.342102	0.939918	0.021842
0.17369	0.985044	0.021842
0	1.00024	0.021842
-0.17369	0.985044	0.021842
-0.342102	0.939918	0.021842
-0.50012	0.866233	0.021842
-0.642942	0.766228	0.021842
-0.766228	0.642942	0.021842
-0.866233	0.50012	0.021842
-0.939918	0.342102	0.021842
-0.985044	0.17369	0.021842
-1.00024	0	0.021842
-0.985044	-0.17369	0.021842
-0.939918	-0.342102	0.021842
-0.866233	-0.50012	0.021842
-0.766228	-0.642942	0.021842
-0.642942	-0.766228	0.021842
-0.50012	-0.866233	0.021842
-0.342102	-0.939918	0.021842
-0.17369	-0.985044	0.021842
0	-1.00024	0.021842
0.17369	-0.985044	0.021842
0.342102	-0.939918	0.021842
0.50012	-0.866233	0.021842
0.642942	-0.766228	0.021842
0.766228	-0.642942	0.021842
0.866233	-0.50012	0.021842
0.939918	-0.342102	0.021842
0.985044	-0.17369	0.021842
1.00024	0	0.021842

zone t="K = 11" I =37 J = 1 K = 1
1.00035	0	0.026585
0.985152	0.173709	0.026585
0.940022	0.34214	0.026585
0.866329	0.500175	0.026585
0.766313	0.643013	0.026585
0.643013	0.766313	0.026585
0.500175	0.866329	0.026585
0.34214	0.940022	0.026585
0.173709	0.985152	0.026585
0	1.00035	0.026585
-0.173709	0.985152	0.026585
-0.34214	0.940022	0.026585
-0.500175	0.866329	0.026585
-0.643013	0.766313	0.026585
-0.766313	0.643013	0.026585
-0.866329	0.500175	0.026585
-0.940022	0.34214	0.026585
-0.985152	0.173709	0.026585
-1.00035	0	0.026585
-0.985152	-0.173709	0.026585
-0.940022	-0.34214	0.026585
-0.866329	-0.500175	0.026585
-0.766313	-0.643013	0.026585
-0.643013	-0.766313	0.026585
-0.500175	-0.866329	0.026585
-0.34214	-0.940022	0.026585
-0.173709	-0.985152	0.026585
0	-1.00035	0.026585
0.173709	-0.985152	0.026585
0.34214	-0.940022	0.026585
0.500175	-0.866329	0.026585
0.643013	-0.766313	0.026585
0.766313	-0.643013	0.026585
0.866329	-0.500175	0.026585
0.940022	-0.34214	0.026585
0.985152	-0.173709	0.026585
1.00035	0	0.026585

zone t="K = 12" I =37 J = 1 K = 1
1.00051	0	0.031835
0.98531	0.173737	0.031835
0.940172	0.342195	0.031835
0.866467	0.500255	0.031835
0.766435	0.643115	0.031835
0.643115	0.766435	0.031835
0.500255	0.866467	0.031835
0.342195	0.940172	0.031835
0.173737	0.98531	0.031835
0	1.00051	0.031835
-0.173737	0.98531	0.031835
-0.342195	0.940172	0.031835
-0.500255	0.866467	0.031835
-0.643115	0.766435	0.031835
-0.766435	0.643115	0.031835
-0.866467	0.500255	0.031835
-0.940172	0.342195	0.031835
-0.98531	0.173737	0.031835
-1.00051	0	0.031835
-0.98531	-0.173737	0.031835
-0.940172	-0.342195	0.031835
-0.866467	-0.500255	0.031835
-0.766435	-0.643115	0.031835
-0.643115	-0.766435	0.031835
-0.500255	-0.866467	0.031835
-0.342195	-0.940172	0.031835
-0.173737	-0.98531	0.031835
0	-1.00051	0.031835
0.173737	-0.98531	0.031835
0.342195	-0.940172	0.031835
0.500255	-0.866467	0.031835
0.643115	-0.766435	0.031835
0.766435	-0.643115	0.031835
0.866467	-0.500255	0.031835
0.940172	-0.342195	0.031835
0.98531	-0.173737	0.031835
1.00051	0	0.031835

zone t="K = 13" I =37 J = 1 K = 1
1.00071	0	0.037604
0.985507	0.173771	0.037604
0.94036	0.342263	0.037604
0.86664	0.500355	0.037604
0.766588	0.643244	0.037604
0.643244	0.766588	0.037604
0.500355	0.86664	0.037604
0.342263	0.94036	0.037604
0.173771	0.985507	0.037604
0	1.00071	0.037604
-0.173771	0.985507	0.037604
-0.342263	0.94036	0.037604
-0.500355	0.86664	0.037604
-0.643244	0.766588	0.037604
-0.766588	0.643244	0.037604
-0.86664	0.500355	0.037604
-0.94036	0.342263	0.037604
-0.985507	0.173771	0.037604
-1.00071	0	0.037604
-0.985507	-0.173771	0.037604
-0.94036	-0.342263	0.037604
-0.86664	-0.500355	0.037604
-0.766588	-0.643244	0.037604
-0.643244	-0.766588	0.037604
-0.500355	-0.86664	0.037604
-0.342263	-0.94036	0.037604
-0.173771	-0.985507	0.037604
0	-1.00071	0.037604
0.173771	-0.985507	0.037604
0.342263	-0.94036	0.037604
0.500355	-0.86664	0.037604
0.643244	-0.766588	0.037604
0.766588	-0.643244	0.037604
0.86664	-0.500355	0.037604
0.94036	-0.342263	0.037604
0.985507	-0.173771	0.037604
1.00071	0	0.037604

zone t="K = 14" I =37 J = 1 K = 1
1.00096	0	0.043903
0.985753	0.173815	0.043903
0.940595	0.342348	0.043903
0.866857	0.50048	0.043903
0.76678	0.643405	0.043903
0.643405	0.76678	0.043903
0.50048	0.866857	0.043903
0.342348	0.940595	0.043903
0.173815	0.985753	0.043903
0	1.00096	0.043903
-0.173815	0.985753	0.043903
-0.342348	0.940595	0.043903
-0.50048	0.866857	0.043903
-0.643405	0.76678	0.043903
-0.76678	0.643405	0.043903
-0.866857	0.50048	0.043903
-0.940595	0.342348	0.043903
-0.985753	0.173815	0.043903
-1.00096	0	0.043903
-0.985753	-0.173815	0.043903
-0.940595	-0.342348	0.043903
-0.866857	-0.50048	0.043903
-0.76678	-0.643405	0.043903
-0.643405	-0.76678	0.043903
-0.50048	-0.866857	0.043903
-0.342348	-0.940595	0.043903
-0.173815	-0.985753	0.043903
0	-1.00096	0.043903
0.173815	-0.985753	0.043903
0.342348	-0.940595	0.043903
0.50048	-0.866857	0.043903
0.643405	-0.76678	0.043903
0.76678	-0.643405	0.043903
0.866857	-0.50048	0.043903
0.940595	-0.342348	0.043903
0.985753	-0.173815	0.043903
1.00096	0	0.043903

zone t="K = 15" I =37 J = 1 K = 1
1.00129	0	0.050745
0.986078	0.173872	0.050745
0.940905	0.342461	0.050745
0.867143	0.500645	0.050745
0.767033	0.643617	0.050745
0.643617	0.767033	0.050745
0.500645	0.867143	0.050745
0.342461	0.940905	0.050745
0.173872	0.986078	0.050745
0	1.00129	0.050745
-0.173872	0.986078	0.050745
-0.342461	0.940905	0.050745
-0.500645	0.867143	0.050745
-0.643617	0.767033	0.050745
-0.767033	0.643617	0.050745
-0.867143	0.500645	0.050745
-0.940905	0.342461	0.050745
-0.986078	0.173872	0.050745
-1.00129	0	0.050745
-0.986078	-0.173872	0.050745
-0.940905	-0.342461	0.050745
-0.867143	-0.500645	0.050745
-0.767033	-0.643617	0.050745
-0.643617	-0.767033	0.050745
-0.500645	-0.867143	0.050745
-0.342461	-0.940905	0.050745
-0.173872	-0.986078	0.050745
0	-1.00129	0.050745
0.173872	-0.986078	0.050745
0.342461	-0.940905	0.050745
0.500645	-0.867143	0.050745
0.643617	-0.767033	0.050745
0.767033	-0.643617	0.050745
0.867143	-0.500645	0.050745
0.940905	-0.342461	0.050745
0.986078	-0.173872	0.050745
1.00129	0	0.050745

zone t="K = 16" I =37 J = 1 K = 1
1.00169	0	0.058142
0.986472	0.173942	0.058142
0.941281	0.342598	0.058142
0.867489	0.500845	0.058142
0.767339	0.643874	0.058142
0.643874	0.767339	0.058142
0.500845	0.867489	0.058142
0.342598	0.941281	0.058142
0.173942	0.986472	0.058142
0	1.00169	0.058142
-0.173942	0.986472	0.058142
-0.342598	0.941281	0.058142
-0.500845	0.867489	0.058142
-0.643874	0.767339	0.058142
-0.767339	0.643874	0.058142
-0.867489	0.500845	0.058142
-0.941281	0.342598	0.058142
-0.986472	0.173942	0.058142
-1.00169	0	0.058142
-0.986472	-0.173942	0.058142
-0.941281	-0.342598	0.058142
-0.867489	-0.500845	0.058142
-0.767339	-0.643874	0.058142
-0.643874	-0.767339	0.058142
-0.500845	-0.867489	0.058142
-0.342598	-0.941281	0.058142
-0.173942	-0.986472	0.058142
0	-1.00169	0.058142
0.173942	-0.986472	0.058142
0.342598	-0.941281	0.058142
0.500845	-0.867489	0.058142
0.643874	-0.767339	0.058142
0.767339	-0.643874	0.058142
0.867489	-0.500845	0.058142
0.941281	-0.342598	0.058142
0.986472	-0.173942	0.058142
1.00169	0	0.058142

zone t="K = 17" I =37 J = 1 K = 1
1.00219	0	0.066107
0.986964	0.174028	0.066107
0.941751	0.342769	0.066107
0.867922	0.501095	0.066107
0.767722	0.644195	0.066107
0.644195	0.767722	0.066107
0.501095	0.867922	0.066107
0.342769	0.941751	0.066107
0.174028	0.986964	0.066107
0	1.00219	0.066107
-0.174028	0.986964	0.066107
-0.342769	0.941751	0.066107
-0.501095	0.867922	0.066107
-0.644195	0.767722	0.066107
-0.767722	0.644195	0.066107
-0.867922	0.501095	0.066107
-0.941751	0.342769	0.066107
-0.986964	0.174028	0.066107
-1.00219	0	0.066107
-0.986964	-0.174028	0.066107
-0.941751	-0.342769	0.066107
-0.867922	-0.501095	0.066107
-0.767722	-0.644195	0.066107
-0.644195	-0.767722	0.066107
-0.501095	-0.867922	0.066107
-0.342769	-0.941751	0.066107
-0.174028	-0.986964	0.066107
0	-1.00219	0.066107
0.174028	-0.986964	0.066107
0.342769	-0.941751	0.066107
0.501095	-0.867922	0.066107
0.644195	-0.767722	0.066107
0.767722	-0.644195	0.066107
0.867922	-0.501095	0.066107
0.941751	-0.342769	0.066107
0.986964	-0.174028	0.066107
1.00219	0	0.066107

zone t="K = 18" I =37 J = 1 K = 1
1.00279	0	0.074652
0.987555	0.174133	0.074652
0.942314	0.342974	0.074652
0.868442	0.501395	0.074652
0.768182	0.644581	0.074652
0.644581	0.768182	0.074652
0.501395	0.868442	0.074652
0.342974	0.942314	0.074652
0.174133	0.987555	0.074652
0	1.00279	0.074652
-0.174133	0.987555	0.074652
-0.342974	0.942314	0.074652
-0.501395	0.868442	0.074652
-0.644581	0.768182	0.074652
-0.768182	0.644581	0.074652
-0.868442	0.501395	0.074652
-0.942314	0.342974	0.074652
-0.987555	0.174133	0.074652
-1.00279	0	0.074652
-0.987555	-0.174133	0.074652
-0.942314	-0.342974	0.074652
-0.868442	-0.501395	0.074652
-0.768182	-0.644581	0.074652
-0.644581	-0.768182	0.074652
-0.501395	-0.868442	0.074652
-0.342974	-0.942314	0.074652
-0.174133	-0.987555	0.074652
0	-1.00279	0.074652
0.174133	-0.987555	0.074652
0.342974	-0.942314	0.074652
0.501395	-0.868442	0.074652
0.644581	-0.768182	0.074652
0.768182	-0.644581	0.074652
0.868442	-0.501395	0.074652
0.942314	-0.342974	0.074652
0.987555	-0.174133	0.074652
1.00279	0	0.074652

zone t="K = 19" I =37 J = 1 K = 1
1.00313	0	0.079003
0.98789	0.174192	0.079003
0.942634	0.343091	0.079003
0.868736	0.501565	0.079003
0.768442	0.6448	0.079003
0.6448	0.768442	0.079003
0.501565	0.868736	0.079003
0.343091	0.942634	0.079003
0.174192	0.98789	0.079003
0	1.00313	0.079003
-0.174192	0.98789	0.079003
-0.343091	0.942634	0.079003
-0.501565	0.868736	0.079003
-0.6448	0.768442	0.079003
-0.768442	0.6448	0.079003
-0.868736	0.501565	0.079003
-0.942634	0.343091	0.079003
-0.98789	0.174192	0.079003
-1.00313	0	0.079003
-0.98789	-0.174192	0.079003
-0.942634	-0.343091	0.079003
-0.868736	-0.501565	0.079003
-0.768442	-0.6448	0.079003
-0.6448	-0.768442	0.079003
-0.501565	-0.868736	0.079003
-0.343091	-0.942634	0.079003
-0.174192	-0.98789	0.079003
0	-1.00313	0.079003
0.174192	-0.98789	0.079003
0.343091	-0.942634	0.079003
0.501565	-0.868736	0.079003
0.6448	-0.768442	0.079003
0.768442	-0.6448	0.079003
0.868736	-0.501565	0.079003
0.942634	-0.343091	0.079003
0.98789	-0.174192	0.079003
1.00313	0	0.079003

zone t="K = 20" I =37 J = 1 K = 1
1.00352	0	0.083791
0.988274	0.174259	0.083791
0.943	0.343224	0.083791
0.869074	0.50176	0.083791
0.768741	0.64505	0.083791
0.64505	0.768741	0.083791
0.50176	0.869074	0.083791
0.343224	0.943	0.083791
0.174259	0.988274	0.083791
0	1.00352	0.083791
-0.174259	0.988274	0.083791
-0.343224	0.943	0.083791
-0.50176	0.869074	0.083791
-0.64505	0.768741	0.083791
-0.768741	0.64505	0.083791
-0.869074	0.50176	0.083791
-0.943	0.343224	0.083791
-0.988274	0.174259	0.083791
-1.00352	0	0.083791
-0.988274	-0.174259	0.083791
-0.943	-0.343224	0.083791
-0.869074	-0.50176	0.083791
-0.768741	-0.64505	0.083791
-0.64505	-0.768741	0.083791
-0.50176	-0.869074	0.083791
-0.343224	-0.943	0.083791
-0.174259	-0.988274	0.083791
0	-1.00352	0.083791
0.174259	-0.988274	0.083791
0.343224	-0.943	0.083791
0.50176	-0.869074	0.083791
0.64505	-0.768741	0.083791
0.768741	-0.64505	0.083791
0.869074	-0.50176	0.083791
0.943	-0.343224	0.083791
0.988274	-0.174259	0.083791
1.00352	0	0.083791

zone t="K = 21" I =37 J = 1 K = 1
1.00389	0	0.088138
0.988639	0.174324	0.088138
0.943348	0.343351	0.088138
0.869394	0.501945	0.088138
0.769024	0.645288	0.088138
0.645288	0.769024	0.088138
0.501945	0.869394	0.088138
0.343351	0.943348	0.088138
0.174324	0.988639	0.088138
0	1.00389	0.088138
-0.174324	0.988639	0.088138
-0.343351	0.943348	0.088138
-0.501945	0.869394	0.088138
-0.645288	0.769024	0.088138
-0.769024	0.645288	0.088138
-0.869394	0.501945	0.088138
-0.943348	0.343351	0.088138
-0.988639	0.174324	0.088138
-1.00389	0	0.088138
-0.988639	-0.174324	0.088138
-0.943348	-0.343351	0.088138
-0.869394	-0.501945	0.088138
-0.769024	-0.645288	0.088138
-0.645288	-0.769024	0.088138
-0.501945	-0.869394	0.088138
-0.343351	-0.943348	0.088138
-0.174324	-0.988639	0.088138
0	-1.00389	0.088138
0.174324	-0.988639	0.088138
0.343351	-0.943348	0.088138
0.501945	-0.869394	0.088138
0.645288	-0.769024	0.088138
0.769024	-0.645288	0.088138
0.869394	-0.501945	0.088138
0.943348	-0.343351	0.088138
0.988639	-0.174324	0.088138
1.00389	0	0.088138

zone t="K = 22" I =37 J = 1 K = 1
1.00438	0	0.093535
0.989121	0.174409	0.093535
0.943808	0.343518	0.093535
0.869819	0.50219	0.093535
0.7694	0.645603	0.093535
0.645603	0.7694	0.093535
0.50219	0.869819	0.093535
0.343518	0.943808	0.093535
0.174409	0.989121	0.093535
0	1.00438	0.093535
-0.174409	0.989121	0.093535
-0.343518	0.943808	0.093535
-0.50219	0.869819	0.093535
-0.645603	0.7694	0.093535
-0.7694	0.645603	0.093535
-0.869819	0.50219	0.093535
-0.943808	0.343518	0.093535
-0.989121	0.174409	0.093535
-1.00438	0	0.093535
-0.989121	-0.174409	0.093535
-0.943808	-0.343518	0.093535
-0.869819	-0.50219	0.093535
-0.7694	-0.645603	0.093535
-0.645603	-0.7694	0.093535
-0.50219	-0.869819	0.093535
-0.343518	-0.943808	0.093535
-0.174409	-0.989121	0.093535
0	-1.00438	0.093535
0.174409	-0.989121	0.093535
0.343518	-0.943808	0.093535
0.50219	-0.869819	0.093535
0.645603	-0.7694	0.093535
0.7694	-0.645603	0.093535
0.869819	-0.50219	0.093535
0.943808	-0.343518	0.093535
0.989121	-0.174409	0.093535
1.00438	0	0.093535

zone t="K = 23" I =37 J = 1 K = 1
1.0048	0	0.097878
0.989535	0.174482	0.097878
0.944203	0.343662	0.097878
0.870182	0.5024	0.097878
0.769721	0.645873	0.097878
0.645873	0.769721	0.097878
0.5024	0.870182	0.097878
0.343662	0.944203	0.097878
0.174482	0.989535	0.097878
0	1.0048	0.097878
-0.174482	0.989535	0.097878
-0.343662	0.944203	0.097878
-0.5024	0.870182	0.097878
-0.645873	0.769721	0.097878
-0.769721	0.645873	0.097878
-0.870182	0.5024	0.097878
-0.944203	0.343662	0.097878
-0.989535	0.174482	0.097878
-1.0048	0	0.097878
-0.989535	-0.174482	0.097878
-0.944203	-0.343662	0.097878
-0.870182	-0.5024	0.097878
-0.769721	-0.645873	0.097878
-0.645873	-0.769721	0.097878
-0.5024	-0.870182	0.097878
-0.343662	-0.944203	0.097878
-0.174482	-0.989535	0.097878
0	-1.0048	0.097878
0.174482	-0.989535	0.097878
0.343662	-0.944203	0.097878
0.5024	-0.870182	0.097878
0.645873	-0.769721	0.097878
0.769721	-0.645873	0.097878
0.870182	-0.5024	0.097878
0.944203	-0.343662	0.097878
0.989535	-0.174482	0.097878
1.0048	0	0.097878

zone t="K = 24" I =37 J = 1 K = 1
1.00541	0	0.103898
0.990136	0.174588	0.103898
0.944776	0.34387	0.103898
0.870711	0.502705	0.103898
0.770189	0.646265	0.103898
0.646265	0.770189	0.103898
0.502705	0.870711	0.103898
0.34387	0.944776	0.103898
0.174588	0.990136	0.103898
0	1.00541	0.103898
-0.174588	0.990136	0.103898
-0.34387	0.944776	0.103898
-0.502705	0.870711	0.103898
-0.646265	0.770189	0.103898
-0.770189	0.646265	0.103898
-0.870711	0.502705	0.103898
-0.944776	0.34387	0.103898
-0.990136	0.174588	0.103898
-1.00541	0	0.103898
-0.990136	-0.174588	0.103898
-0.944776	-0.34387	0.103898
-0.870711	-0.502705	0.103898
-0.770189	-0.646265	0.103898
-0.646265	-0.770189	0.103898
-0.502705	-0.870711	0.103898
-0.34387	-0.944776	0.103898
-0.174588	-0.990136	0.103898
0	-1.00541	0.103898
0.174588	-0.990136	0.103898
0.34387	-0.944776	0.103898
0.502705	-0.870711	0.103898
0.646265	-0.770189	0.103898
0.770189	-0.646265	0.103898
0.870711	-0.502705	0.103898
0.944776	-0.34387	0.103898
0.990136	-0.174588	0.103898
1.00541	0	0.103898

zone t="K = 25" I =37 J = 1 K = 1
1.00587	0	0.108237
0.990589	0.174667	0.108237
0.945209	0.344028	0.108237
0.871109	0.502935	0.108237
0.770541	0.646561	0.108237
0.646561	0.770541	0.108237
0.502935	0.871109	0.108237
0.344028	0.945209	0.108237
0.174667	0.990589	0.108237
0	1.00587	0.108237
-0.174667	0.990589	0.108237
-0.344028	0.945209	0.108237
-0.502935	0.871109	0.108237
-0.646561	0.770541	0.108237
-0.770541	0.646561	0.108237
-0.871109	0.502935	0.108237
-0.945209	0.344028	0.108237
-0.990589	0.174667	0.108237
-1.00587	0	0.108237
-0.990589	-0.174667	0.108237
-0.945209	-0.344028	0.108237
-0.871109	-0.502935	0.108237
-0.770541	-0.646561	0.108237
-0.646561	-0.770541	0.108237
-0.502935	-0.871109	0.108237
-0.344028	-0.945209	0.108237
-0.174667	-0.990589	0.108237
0	-1.00587	0.108237
0.174667	-0.990589	0.108237
0.344028	-0.945209	0.108237
0.502935	-0.871109	0.108237
0.646561	-0.770541	0.108237
0.770541	-0.646561	0.108237
0.871109	-0.502935	0.108237
0.945209	-0.344028	0.108237
0.990589	-0.174667	0.108237
1.00587	0	0.108237

zone t="K = 26" I =37 J = 1 K = 1
1.00662	0	0.114894
0.991327	0.174798	0.114894
0.945913	0.344284	0.114894
0.871758	0.50331	0.114894
0.771116	0.647043	0.114894
0.647043	0.771116	0.114894
0.50331	0.871758	0.114894
0.344284	0.945913	0.114894
0.174798	0.991327	0.114894
0	1.00662	0.114894
-0.174798	0.991327	0.114894
-0.344284	0.945913	0.114894
-0.50331	0.871758	0.114894
-0.647043	0.771116	0.114894
-0.771116	0.647043	0.114894
-0.871758	0.50331	0.114894
-0.945913	0.344284	0.114894
-0.991327	0.174798	0.114894
-1.00662	0	0.114894
-0.991327	-0.174798	0.114894
-0.945913	-0.344284	0.114894
-0.871758	-0.50331	0.114894
-0.771116	-0.647043	0.114894
-0.647043	-0.771116	0.114894
-0.50331	-0.871758	0.114894
-0.344284	-0.945913	0.114894
-0.174798	-0.991327	0.114894
0	-1.00662	0.114894
0.174798	-0.991327	0.114894
0.344284	-0.945913	0.114894
0.50331	-0.871758	0.114894
0.647043	-0.771116	0.114894
0.771116	-0.647043	0.114894
0.871758	-0.50331	0.114894
0.945913	-0.344284	0.114894
0.991327	-0.174798	0.114894
1.00662	0	0.114894

zone t="K = 27" I =37 J = 1 K = 1
1.00713	0	0.119228
0.991829	0.174886	0.119228
0.946393	0.344459	0.119228
0.8722	0.503565	0.119228
0.771506	0.647371	0.119228
0.647371	0.771506	0.119228
0.503565	0.8722	0.119228
0.344459	0.946393	0.119228
0.174886	0.991829	0.119228
0	1.00713	0.119228
-0.174886	0.991829	0.119228
-0.344459	0.946393	0.119228
-0.503565	0.8722	0.119228
-0.647371	0.771506	0.119228
-0.771506	0.647371	0.119228
-0.8722	0.503565	0.119228
-0.946393	0.344459	0.119228
-0.991829	0.174886	0.119228
-1.00713	0	0.119228
-0.991829	-0.174886	0.119228
-0.946393	-0.344459	0.119228
-0.8722	-0.503565	0.119228
-0.771506	-0.647371	0.119228
-0.647371	-0.771506	0.119228
-0.503565	-0.8722	0.119228
-0.344459	-0.946393	0.119228
-0.174886	-0.991829	0.119228
0	-1.00713	0.119228
0.174886	-0.991829	0.119228
0.344459	-0.946393	0.119228
0.503565	-0.8722	0.119228
0.647371	-0.771506	0.119228
0.771506	-0.647371	0.119228
0.8722	-0.503565	0.119228
0.946393	-0.344459	0.119228
0.991829	-0.174886	0.119228
1.00713	0	0.119228

zone t="K = 28" I =37 J = 1 K = 1
1.00804	0	0.126538
0.992726	0.175044	0.126538
0.947248	0.34477	0.126538
0.872988	0.50402	0.126538
0.772203	0.647956	0.126538
0.647956	0.772203	0.126538
0.50402	0.872988	0.126538
0.34477	0.947248	0.126538
0.175044	0.992726	0.126538
0	1.00804	0.126538
-0.175044	0.992726	0.126538
-0.34477	0.947248	0.126538
-0.50402	0.872988	0.126538
-0.647956	0.772203	0.126538
-0.772203	0.647956	0.126538
-0.872988	0.50402	0.126538
-0.947248	0.34477	0.126538
-0.992726	0.175044	0.126538
-1.00804	0	0.126538
-0.992726	-0.175044	0.126538
-0.947248	-0.34477	0.126538
-0.872988	-0.50402	0.126538
-0.772203	-0.647956	0.126538
-0.647956	-0.772203	0.126538
-0.50402	-0.872988	0.126538
-0.34477	-0.947248	0.126538
-0.175044	-0.992726	0.126538
0	-1.00804	0.126538
0.175044	-0.992726	0.126538
0.34477	-0.947248	0.126538
0.50402	-0.872988	0.126538
0.647956	-0.772203	0.126538
0.772203	-0.647956	0.126538