VARIABLES = "X(in)","Y(in)","Z(in)","R(in)","P(psia)","PT(psia)","T(R)","TT(R)","RHO(lbm/ft3)","Mach","Velocity(ft/s)","Theta(deg)","Psi(deg)","I","K","BodyFlag"
TITLE = "Volume Mesh Plot"
text  x=5  y=93  t="Characteristic Mesh Plot" 
zone t="All data" I = 162 J = 1 K = 15
-0.142857	1.74944e-017	0	0.142857	1000	2135.14	530	658.26	5.09176	1.1	1241.53	0	0	5	0	0
-0.142857	0	0.000212	0.142857	1000	2135.14	530	658.26	5.09176	1.1	1241.53	0	0	5	1	0
-0.142857	0	0.000847	0.142857	1000	2135.14	530	658.26	5.09176	1.1	1241.53	0	0	5	2	0
-0.142857	0	0.00191	0.142857	1000	2135.14	530	658.26	5.09176	1.1	1241.53	0	0	5	3	0
-0.142857	0	0.003404	0.142857	1000	2135.14	530	658.26	5.09176	1.1	1241.53	3.08615e-006	4.37326e-015	5	4	0
-0.142857	0	0.005335	0.142857	1000	2135.14	530	658.26	5.09176	1.1	1241.53	6.6731e-006	1.27222e-014	5	5	0
-0.142857	0	0.00771	0.142857	1000	2135.14	530	658.26	5.09176	1.1	1241.53	8.00301e-006	-2.10712e-014	5	6	0
-0.142857	0	0.010539	0.142857	1000	2135.14	530	658.26	5.09176	1.1	1241.53	1.73921e-005	-1.11319e-014	5	7	0
-0.142857	0	0.01383	0.142857	1000	2135.14	530	658.26	5.09176	1.1	1241.53	1.70346e-005	-2.70347e-014	5	8	0
-0.142857	0	0.017594	0.142857	1000	2135.14	530	658.26	5.09176	1.1	1241.53	5.58907e-007	3.18055e-015	5	9	0
-0.142857	0	0.021842	0.142857	1000	2135.14	530	658.26	5.09175	1.1	1241.53	-2.35832e-005	1.27222e-014	5	10	0
-0.142857	0	0.026585	0.142857	999.998	2135.14	530	658.26	5.09175	1.1	1241.53	-6.01122e-005	2.90227e-014	5	11	0
-0.142857	0	0.031835	0.142857	999.997	2135.14	529.999	658.26	5.09174	1.1	1241.53	-0.000116633	5.84429e-014	5	12	0
-0.142857	0	0.037604	0.142857	999.996	2135.14	529.999	658.26	5.09174	1.1	1241.53	-0.000177379	4.81058e-014	5	13	0
-0.142857	0	0.043903	0.142857	999.998	2135.14	530	658.26	5.09175	1.1	1241.53	-0.000233137	4.89012e-014	5	14	0
-0.142857	0	0.050745	0.142857	1000.01	2135.14	530.001	658.26	5.09178	1.1	1241.52	-0.000232941	4.13473e-014	5	15	0
-0.142857	0	0.058142	0.142857	1000.02	2135.14	530.003	658.26	5.09184	1.09998	1241.51	-0.000158665	4.09497e-014	5	16	0
-0.142857	0	0.066107	0.142857	1000.05	2135.14	530.008	658.26	5.09194	1.09996	1241.49	-1.5292e-005	4.13472e-014	5	17	0
-0.142857	0	0.074652	0.142857	1000.09	2135.14	530.013	658.26	5.09208	1.09993	1241.46	0.000158986	5.0491e-014	5	18	0
-0.142857	0	0.079003	0.142857	1000.11	2135.14	530.017	658.26	5.09216	1.09991	1241.45	0.000138992	3.97569e-014	5	19	0
-0.142857	0	0.083791	0.142857	1000.14	2135.14	530.021	658.26	5.09225	1.09989	1241.43	3.96765e-005	1.90833e-014	5	20	0
-0.142857	0	0.088138	0.142857	1000.16	2135.14	530.024	658.26	5.09233	1.09987	1241.41	-0.000163987	2.0276e-014	5	21	0
-0.142857	0	0.093535	0.142857	1000.18	2135.14	530.028	658.26	5.09242	1.09985	1241.4	-0.00053418	3.18062e-014	5	22	0
-0.142857	0	0.097878	0.142857	1000.2	2135.14	530.03	658.26	5.09248	1.09984	1241.38	-0.00100589	3.81668e-014	5	23	0
-0.142857	0	0.103898	0.142857	1000.21	2135.14	530.032	658.26	5.09253	1.09983	1241.37	-0.00182368	3.69733e-014	5	24	0
-0.142858	0	0.108237	0.142858	1000.22	2135.14	530.033	658.26	5.09256	1.09982	1241.37	-0.0026627	1.59001e-014	5	25	0
-0.142858	0	0.114894	0.142858	1000.22	2135.14	530.033	658.26	5.09254	1.09983	1241.37	-0.00410399	-5.97189e-015	5	26	0
-0.142858	0	0.119228	0.142858	1000.21	2135.14	530.032	658.26	5.09252	1.09983	1241.38	-0.00532184	-1.94842e-014	5	27	0
-0.142859	0	0.126538	0.142859	1000.18	2135.14	530.027	658.26	5.09241	1.09986	1241.4	-0.00742206	-1.23175e-014	5	28	0
-0.14286	0	0.130865	0.14286	1000.16	2135.14	530.025	658.26	5.09235	1.09987	1241.41	-0.00892778	-1.57322e-015	5	29	0
-0.142861	0	0.138843	0.142861	1000.11	2135.14	530.017	658.26	5.09216	1.09991	1241.45	-0.0114438	5.15986e-015	5	30	0
-0.142862	0	0.143163	0.142862	1000.1	2135.14	530.015	658.26	5.09211	1.09992	1241.46	-0.0129725	4.61048e-018	5	31	0
-0.142863	0	0.14748	0.142863	1000.09	2135.14	530.013	658.26	5.09207	1.09993	1241.46	-0.0144017	3.02271e-014	5	32	0
-0.142864	0	0.151826	0.142864	1000.09	2135.14	530.013	658.26	5.09208	1.09993	1241.46	-0.0156794	5.12942e-014	5	33	0
-0.142866	0	0.156137	0.142866	1000.1	2135.14	530.015	658.26	5.09212	1.09992	1241.45	-0.0167385	3.21898e-014	5	34	0
-0.142867	0	0.160445	0.142867	1000.13	2135.14	530.02	658.26	5.09223	1.0999	1241.43	-0.0175281	6.34778e-015	5	35	0
-0.142868	0	0.165503	0.142868	1000.18	2135.14	530.028	658.26	5.09242	1.09985	1241.39	-0.0179572	-3.85953e-014	5	36	0
-0.14287	0	0.169804	0.14287	1000.26	2135.14	530.039	658.26	5.09269	1.09979	1241.34	-0.017976	7.57971e-015	5	37	0
-0.142871	0	0.174102	0.142871	1000.36	2135.14	530.055	658.26	5.09307	1.09971	1241.26	-0.0175487	3.50061e-014	5	38	0
-0.142873	0	0.179891	0.142873	1000.53	2135.14	530.08	658.26	5.09369	1.09957	1241.14	-0.0159494	3.02151e-014	5	39	0
-0.142874	0	0.184181	0.142874	1000.71	2135.14	530.107	658.26	5.09433	1.09943	1241.01	-0.0143215	3.02188e-014	5	40	0
-0.142875	0	0.188468	0.142875	1000.92	2135.14	530.14	658.26	5.09512	1.09926	1240.85	-0.0121372	5.56479e-014	5	41	0
-0.142876	0	0.195009	0.142876	1001.3	2135.14	530.197	658.26	5.09648	1.09895	1240.58	-0.00716582	3.49933e-014	5	42	0
-0.142876	0	0.199287	0.142876	1001.62	2135.14	530.245	658.26	5.09764	1.0987	1240.34	-0.00353648	3.14062e-014	5	43	0
-0.142877	0	0.203561	0.142877	1001.98	2135.14	530.3	658.26	5.09896	1.0984	1240.08	0.000637681	5.9238e-014	5	44	0
-0.142876	0	0.210878	0.142876	1002.66	2135.14	530.402	658.26	5.10141	1.09786	1239.58	0.00992456	3.29809e-014	5	45	0
-0.142875	0	0.215141	0.142875	1003.14	2135.14	530.475	658.26	5.10316	1.09747	1239.23	0.0153623	4.13566e-014	5	46	0
-0.142874	0	0.219401	0.142874	1003.66	2135.14	530.554	658.26	5.10506	1.09705	1238.85	0.021135	2.69852e-014	5	47	0
-0.14287	0	0.22752	0.14287	1004.7	2135.14	530.711	658.26	5.10884	1.09621	1238.08	0.0342659	-1.27741e-014	5	48	0
-0.142867	0	0.231767	0.142867	1005.33	2135.14	530.805	658.26	5.11112	1.09571	1237.62	0.040441	2.00646e-015	5	49	0
-0.142864	0	0.236009	0.142864	1005.99	2135.14	530.905	658.26	5.11351	1.09518	1237.14	0.0465076	-1.43599e-014	5	50	0
-0.14286	0	0.240247	0.14286	1006.67	2135.14	531.008	658.26	5.11599	1.09463	1236.64	0.0523297	-2.54023e-014	5	51	0
-0.142855	0	0.244959	0.142855	1007.44	2135.14	531.124	658.26	5.1188	1.09401	1236.08	0.0584604	-4.93728e-014	5	52	0
-0.142851	0	0.249187	0.142851	1008.15	2135.14	531.231	658.26	5.12137	1.09344	1235.56	0.0632712	-4.92771e-014	5	53	0
-0.142846	0	0.25341	0.142846	1008.86	2135.14	531.338	658.26	5.12394	1.09287	1235.04	0.0673674	-6.21417e-014	5	54	0
-0.142841	0	0.257629	0.142841	1009.56	2135.14	531.443	658.26	5.12649	1.09231	1234.52	0.0705959	-6.56991e-014	5	55	0
-0.142834	0	0.263221	0.142834	1010.44	2135.14	531.576	658.26	5.12968	1.0916	1233.88	0.0736227	-7.79907e-014	5	56	0
-0.142829	0	0.267428	0.142829	1011.08	2135.14	531.672	658.26	5.132	1.09109	1233.41	0.074223	-6.79225e-014	5	57	0
-0.142823	0	0.27163	0.142823	1011.68	2135.14	531.761	658.26	5.13415	1.09061	1232.98	0.0734678	-6.16317e-014	5	58	0
-0.142818	0	0.275827	0.142818	1012.21	2135.14	531.842	658.26	5.1361	1.09018	1232.58	0.071228	-9.49376e-014	5	59	0
-0.14281	0	0.282337	0.14281	1012.88	2135.14	531.941	658.26	5.13851	1.08965	1232.1	0.0650611	-1.09687e-013	5	60	0
-0.142806	0	0.28652	0.142806	1013.21	2135.14	531.991	658.26	5.13972	1.08938	1231.85	0.0585346	-1.20851e-013	5	61	0
-0.142802	0	0.290698	0.142802	1013.45	2135.14	532.026	658.26	5.14057	1.0892	1231.68	0.0502037	-9.06482e-014	5	62	0
-0.142798	0	0.29487	0.142798	1013.57	2135.14	532.045	658.26	5.14101	1.0891	1231.59	0.0400241	-8.58649e-014	5	63	0
-0.142795	0	0.302339	0.142795	1013.43	2135.14	532.023	658.26	5.14049	1.08921	1231.7	0.0176105	-7.27441e-014	5	64	0
-0.142794	0	0.306495	0.142794	1013.17	2135.14	531.985	658.26	5.13957	1.08942	1231.88	0.0021429	-7.31519e-014	5	65	0
-0.142794	0	0.310645	0.142794	1012.76	2135.14	531.924	658.26	5.13809	1.08974	1232.18	-0.0151395	-7.27564e-014	5	66	0
-0.142796	0	0.31479	0.142796	1012.2	2135.14	531.839	658.26	5.13604	1.0902	1232.6	-0.034176	-8.58439e-014	5	67	0
-0.142799	0	0.318928	0.142799	1011.46	2135.14	531.729	658.26	5.13338	1.09078	1233.13	-0.0548759	-8.10037e-014	5	68	0
-0.142804	0	0.323264	0.142804	1010.51	2135.14	531.586	658.26	5.12993	1.09155	1233.83	-0.0782696	-8.79535e-014	5	69	0
-0.142811	0	0.32739	0.142811	1009.43	2135.14	531.423	658.26	5.12599	1.09242	1234.62	-0.102064	-1.19738e-013	5	70	0
-0.142819	0	0.33151	0.142819	1008.17	2135.14	531.233	658.26	5.12142	1.09343	1235.55	-0.127175	-1.22856e-013	5	71	0
-0.142829	0	0.335623	0.142829	1006.73	2135.14	531.017	658.26	5.11621	1.09458	1236.6	-0.153456	-1.15071e-013	5	72	0
-0.142841	0	0.33973	0.142841	1005.12	2135.14	530.774	658.26	5.11036	1.09588	1237.78	-0.180765	-1.19388e-013	5	73	0
-0.14286	0	0.345155	0.14286	1002.72	2135.14	530.411	658.26	5.10164	1.09781	1239.54	-0.218052	-1.19276e-013	5	74	0
-0.142877	0	0.349247	0.142877	1000.72	2135.14	530.109	658.26	5.09437	1.09942	1241	-0.247194	-1.3739e-013	5	75	0
-0.142895	0	0.353332	0.142895	998.556	2135.14	529.781	658.26	5.0865	1.10116	1242.59	-0.276855	-1.47001e-013	5	76	0
-0.142916	0	0.357411	0.142916	996.241	2135.14	529.43	658.26	5.07808	1.10304	1244.28	-0.306898	-1.46347e-013	5	77	0
-0.142939	0	0.361482	0.142939	993.78	2135.14	529.056	658.26	5.06911	1.10503	1246.09	-0.33717	-1.5485e-013	5	78	0
-0.142981	0	0.368059	0.142981	989.494	2135.14	528.403	658.26	5.05349	1.1085	1249.23	-0.385771	-1.46951e-013	5	79	0
-0.143009	0	0.372113	0.143009	986.685	2135.14	527.974	658.26	5.04324	1.11078	1251.3	-0.416162	-1.19345e-013	5	80	0
-0.143039	0	0.376159	0.143039	983.76	2135.14	527.526	658.26	5.03255	1.11316	1253.44	-0.446364	-1.33721e-013	5	81	0
-0.143072	0	0.380198	0.143072	980.727	2135.14	527.061	658.26	5.02147	1.11563	1255.67	-0.476294	-1.25845e-013	5	82	0
-0.143106	0	0.384231	0.143106	977.592	2135.14	526.579	658.26	5.01	1.11819	1257.98	-0.505882	-1.3138e-013	5	83	0
-0.143179	0	0.392032	0.143179	971.244	2135.14	525.6	658.26	4.98674	1.12338	1262.64	-0.560684	-1.19772e-013	5	84	0
-0.143219	0	0.396043	0.143219	967.861	2135.14	525.076	658.26	4.97432	1.12616	1265.13	-0.588976	-1.23833e-013	5	85	0
-0.143261	0	0.400045	0.143261	964.411	2135.14	524.541	658.26	4.96165	1.129	1267.67	-0.616695	-1.31179e-013	5	86	0
-0.143305	0	0.40404	0.143305	960.899	2135.14	523.994	658.26	4.94874	1.13189	1270.26	-0.643822	-1.29359e-013	5	87	0
-0.143351	0	0.408028	0.143351	957.332	2135.14	523.438	658.26	4.93561	1.13484	1272.89	-0.670334	-1.44084e-013	5	88	0
-0.143399	0	0.412008	0.143399	953.716	2135.14	522.872	658.26	4.92229	1.13783	1275.56	-0.696208	-1.49488e-013	5	89	0
-0.143462	0	0.417138	0.143462	948.978	2135.14	522.129	658.26	4.90481	1.14176	1279.06	-0.728359	-1.61108e-013	5	90	0
-0.143514	0	0.4211	0.143514	945.273	2135.14	521.546	658.26	4.89112	1.14484	1281.79	-0.752762	-1.55463e-013	5	91	0
-0.143566	0	0.425053	0.143566	941.539	2135.14	520.956	658.26	4.87732	1.14796	1284.55	-0.776508	-1.53023e-013	5	92	0
-0.143621	0	0.428999	0.143621	937.779	2135.14	520.361	658.26	4.8634	1.1511	1287.34	-0.799614	-1.38344e-013	5	93	0
-0.143676	0	0.432936	0.143676	934	2135.14	519.761	658.26	4.84939	1.15427	1290.13	-0.822076	-1.65424e-013	5	94	0
-0.143733	0	0.436865	0.143733	930.203	2135.14	519.156	658.26	4.8353	1.15746	1292.95	-0.843916	-1.61014e-013	5	95	0
-0.143832	0	0.443451	0.143832	923.776	2135.14	518.129	658.26	4.81141	1.16288	1297.71	-0.87836	-1.73272e-013	5	96	0
-0.14388	0	0.446506	0.14388	920.79	2135.14	517.65	658.26	4.8003	1.1654	1299.93	-0.894405	-1.86058e-013	5	97	0
-0.144787	0	0.5	0.144787	868.614	2135.14	509.094	658.26	4.60439	1.21038	1338.89	-1.04972	-1.58096e-013	5	98	0
-0.145794	0	0.55	0.145794	820.462	2135.14	500.866	658.26	4.4206	1.25349	1375.33	-1.25718	-7.40395e-014	5	99	0
-0.146976	0	0.6	0.146976	774.627	2135.14	492.706	658.26	4.24276	1.29617	1410.52	-1.45212	-2.17431e-014	5	100	0
-0.148319	0	0.65	0.148319	730.569	2135.14	484.531	658.26	4.06895	1.33894	1444.93	-1.62449	-6.71952e-008	5	101	0
-0.149589	0	0.692991	0.149589	694.045	2135.14	477.483	658.26	3.92259	1.37587	1473.95	-1.7594	-1.05569e-007	5	102	0
-0.153743	0	0.815762	0.153743	599.095	2135.14	457.829	658.26	3.53131	1.4795	1552.01	-2.11624	4.55492e-008	5	103	0
-0.158682	0	0.938482	0.158682	513.731	2135.14	438.156	658.26	3.1641	1.58484	1626.39	-2.49285	4.28201e-007	5	104	0
-0.164352	0	1.06128	0.164352	439.389	2135.14	419.018	658.26	2.82983	1.68961	1695.62	-2.79531	9.63493e-007	5	105	0
-0.170611	0	1.18428	0.170611	375.355	2135.14	400.579	658.26	2.5287	1.79342	1759.76	-3.0301	-1.0368e-007	5	106	0
-0.177395	0	1.30758	0.177395	320.227	2135.14	382.806	658.26	2.25748	1.8968	1819.43	-3.26865	-1.01206e-006	5	107	0
-0.184734	0	1.43124	0.184734	272.987	2135.14	365.741	658.26	2.01424	1.99975	1874.94	-3.52458	-1.11448e-006	5	108	0
-0.192658	0	1.55537	0.192658	232.621	2135.14	349.396	658.26	1.79669	2.10237	1926.61	-3.78062	-7.83604e-007	5	109	0
-0.201157	0	1.68005	0.201157	198.264	2135.14	333.801	658.26	1.60287	2.20455	1974.65	-4.0185	-3.18753e-007	5	110	0
-0.210189	0	1.80534	0.210189	169.162	2135.14	319	658.26	1.43105	2.30598	2019.19	-4.22807	1.40429e-007	5	111	0
-0.219702	0	1.93134	0.219702	144.611	2135.14	305.024	658.26	1.27941	2.40631	2060.36	-4.40663	5.35602e-007	5	112	0
-0.229638	0	2.05812	0.229638	123.955	2135.14	291.883	658.26	1.14604	2.50521	2098.34	-4.55573	8.46435e-007	5	113	0
-0.239949	0	2.18579	0.239949	106.592	2135.14	279.565	658.26	1.02893	2.60248	2133.32	-4.67892	1.07116e-006	5	114	0
-0.25059	0	2.31441	0.25059	91.9922	2135.14	268.043	658.26	0.926168	2.69796	2165.53	-4.78016	1.21637e-006	5	115	0
-0.261529	0	2.44409	0.261529	79.6922	2135.14	257.273	658.26	0.83592	2.7916	2195.21	-4.86326	1.2918e-006	5	116	0
-0.27274	0	2.57493	0.27274	69.3019	2135.14	247.207	658.26	0.756534	2.88339	2222.59	-4.93152	1.30744e-006	5	117	0
-0.284206	0	2.70706	0.284206	60.494	2135.14	237.79	658.26	0.686534	2.97342	2247.91	-4.98768	1.27226e-006	5	118	0
-0.295911	0	2.84056	0.295911	53.0013	2135.14	228.974	658.26	0.62466	3.06172	2271.35	-5.03393	1.19373e-006	5	119	0
-0.307834	0	2.9754	0.307834	46.6086	2135.14	220.718	658.26	0.569865	3.1483	2293.09	-5.07202	1.07791e-006	5	120	0
-0.319957	0	3.11157	0.319957	41.136	2135.14	212.98	658.26	0.521227	3.23319	2313.28	-5.10336	9.29488e-007	5	121	0
-0.332269	0	3.24908	0.332269	36.4341	2135.14	205.721	658.26	0.47794	3.31645	2332.06	-5.12905	7.51942e-007	5	122	0
-0.34476	0	3.38796	0.34476	32.3789	2135.14	198.901	658.26	0.439308	3.39815	2349.56	-5.15001	5.47784e-007	5	123	0
-0.357409	0	3.52808	0.357409	28.8721	2135.14	192.492	658.26	0.404771	3.47827	2365.9	-5.16692	3.19162e-007	5	124	0
-0.370218	0	3.66954	0.370218	25.8264	2135.14	186.457	658.26	0.37379	3.55693	2381.17	-5.18035	6.73097e-008	5	125	0
-0.383186	0	3.81244	0.383186	23.1702	2135.14	180.764	658.26	0.345908	3.63424	2395.5	-5.19076	-2.07057e-007	5	126	0
-0.396294	0	3.95662	0.396294	20.8487	2135.14	175.393	658.26	0.320782	3.71016	2408.93	-5.19849	-5.02964e-007	5	127	0
-0.409537	0	4.1021	0.409537	18.8127	2135.14	170.319	658.26	0.29808	3.78476	2421.56	-5.20383	-8.20055e-007	5	128	0
-0.422936	0	4.24918	0.422936	17.0178	2135.14	165.508	658.26	0.277477	3.85824	2433.46	-5.20704	-1.15884e-006	5	129	0
-0.43643	0	4.39723	0.43643	15.4377	2135.14	160.964	658.26	0.25882	3.93033	2444.66	-5.2083	-1.51769e-006	5	130	0
-0.450081	0	4.547	0.450081	14.0351	2135.14	156.642	658.26	0.241796	4.00145	2455.26	-5.20779	-1.89842e-006	5	131	0
-0.463824	0	4.69781	0.463824	12.7925	2135.14	152.548	658.26	0.226305	4.0713	2465.26	-5.20565	-2.29928e-006	5	132	0
-0.477716	0	4.85035	0.477716	11.6836	2135.14	148.646	658.26	0.212111	4.14027	2474.75	-5.20199	-2.72205e-006	5	133	0
-0.491685	0	5.00386	0.491685	10.6963	2135.14	144.944	658.26	0.199149	4.20802	2483.72	-5.19694	-3.16454e-006	5	134	0
-0.505811	0	5.15927	0.505811	9.80977	2135.14	141.405	658.26	0.187214	4.27501	2492.27	-5.19053	-3.62924e-006	5	135	0
-0.519986	0	5.31542	0.519986	9.01783	2135.14	138.045	658.26	0.176289	4.34077	2500.36	-5.18291	-4.11252e-006	5	136	0
-0.534316	0	5.47354	0.534316	8.30297	2135.14	134.825	658.26	0.16619	4.40586	2508.09	-5.17406	-4.61774e-006	5	137	0
-0.5487	0	5.63255	0.5487	7.66083	2135.14	131.76	658.26	0.156905	4.46985	2515.42	-5.16409	-5.14121e-006	5	138	0
-0.563203	0	5.7932	0.563203	7.07989	2135.14	128.824	658.26	0.148311	4.53307	2522.42	-5.153	-5.68481e-006	5	139	0
-0.577814	0	5.95541	0.577814	6.55362	2135.14	126.012	658.26	0.14035	4.59553	2529.11	-5.14081	-6.24781e-006	5	140	0
-0.592466	0	6.11848	0.592466	6.07799	2135.14	123.329	658.26	0.132996	4.65695	2535.48	-5.1276	-6.82727e-006	5	141	0
-0.607262	0	6.2836	0.607262	5.64408	2135.14	120.746	658.26	0.126143	4.71784	2541.59	-5.11329	-7.4266e-006	5	142	0
-0.622092	0	6.44958	0.622092	5.2505	2135.14	118.278	658.26	0.119795	4.77774	2547.42	-5.09798	-8.04096e-006	5	143	0
-0.637	0	6.61696	0.637	4.89163	2135.14	115.91	658.26	0.113888	4.83688	2553	-5.08161	-8.67139e-006	5	144	0
-0.652044	0	6.78643	0.652044	4.56256	2135.14	113.626	658.26	0.108361	4.89551	2558.37	-5.06411	-9.31949e-006	5	145	0
-0.667123	0	6.95691	0.667123	4.26238	2135.14	111.438	658.26	0.10322	4.95326	2563.5	-5.04555	-9.98027e-006	5	146	0
-0.682268	0	7.12878	0.682268	3.98751	2135.14	109.336	658.26	0.0984199	5.01026	2568.43	-5.02587	-1.06538e-005	5	147	0
-0.697471	0	7.30202	0.697471	3.7355	2135.14	107.315	658.26	0.0939357	5.06651	2573.15	-5.00503	-1.13384e-005	5	148	0
-0.712727	0	7.4766	0.712727	3.50421	2135.14	105.373	658.26	0.0897437	5.12198	2577.68	-4.98298	-1.20321e-005	5	149	0
-0.728042	0	7.65267	0.728042	3.29154	2135.14	103.505	658.26	0.0858185	5.17672	2582.03	-4.95962	-1.27333e-005	5	150	0
-0.743388	0	7.82995	0.743388	3.09609	2135.14	101.71	658.26	0.082147	5.23063	2586.21	-4.93493	-1.34382e-005	5	151	0
-0.758797	0	8.00889	0.758797	2.91587	2135.14	99.9825	658.26	0.0787023	5.28382	2590.22	-4.90872	-1.41455e-005	5	152	0
-0.774239	0	8.18921	0.774239	2.74984	2135.14	98.3217	658.26	0.0754747	5.33618	2594.07	-4.88092	-1.48504e-005	5	153	0
-0.789669	0	8.37044	0.789669	2.59718	2135.14	96.7302	658.26	0.0724575	5.38754	2597.75	-4.85145	-1.55471e-005	5	154	0
-0.805171	0	8.55369	0.805171	2.45587	2135.14	95.1963	658.26	0.0696191	5.43818	2601.3	-4.81996	-1.62348e-005	5	155	0
-0.82066	0	8.73802	0.82066	2.32572	2135.14	93.7268	658.26	0.0669633	5.4878	2604.69	-4.7864	-1.69052e-005	5	156	0
-0.836154	0	8.92376	0.836154	2.20559	2135.14	92.3172	658.26	0.0644741	5.53643	2607.94	-4.75048	-1.75537e-005	5	157	0
-0.85162	0	9.11062	0.85162	2.09487	2135.14	90.9687	658.26	0.0621453	5.58396	2611.04	-4.71199	-1.81734e-005	5	158	0
-0.867131	0	9.29964	0.867131	1.99226	2135.14	89.6727	658.26	0.0599555	5.63058	2614.02	-4.67041	-1.87609e-005	5	159	0
-0.882576	0	9.48962	0.882576	1.89781	2135.14	88.437	658.26	0.0579113	5.67594	2616.86	-4.62564	-1.93065e-005	5	160	0
-0.884195	0	9.50964	0.884195	1.88862	2135.14	88.3143	658.26	0.0577106	5.68049	2617.15	-4.62067	-1.9371e-005	5	161	0
0	0	0	0	1000	2135.14	530	658.26	5.09176	1.1	1241.53	0	0	0	0	0
0	0	0.000212	0	1000	2135.14	530	658.26	5.09176	1.1	1241.53	0	0	0	1	0
0	0	0.000847	0	1000	2135.14	530	658.26	5.09176	1.1	1241.53	0	0	0	2	0
0	0	0.00191	0	1000	2135.14	530	658.26	5.09176	1.1	1241.53	0	0	0	3	0
0	0	0.003404	0	1000	2135.14	530	658.26	5.09176	1.1	1241.53	3.83978e-010	-3.18055e-015	0	4	0
0	0	0.005335	0	1000	2135.14	530	658.26	5.09175	1.1	1241.53	7.54679e-010	1.59028e-015	0	5	0
0	0	0.00771	0	1000	2135.14	530	658.26	5.09175	1.1	1241.53	-1.13616e-010	1.98785e-015	0	6	0
0	0	0.010539	0	999.999	2135.14	530	658.26	5.09175	1.1	1241.53	9.22436e-010	3.18055e-015	0	7	0
0	0	0.01383	0	999.999	2135.14	530	658.26	5.09175	1.1	1241.53	9.67437e-010	1.98785e-015	0	8	0
0	0	0.017594	0	1000	2135.14	530	658.26	5.09176	1.1	1241.53	-1.1876e-009	-1.59028e-015	0	9	0
0	0	0.021842	0	1000	2135.14	530	658.26	5.09176	1.1	1241.53	-5.23573e-009	1.27222e-014	0	10	0
0	0	0.026585	0	1000	2135.14	530	658.26	5.09176	1.1	1241.53	-1.10327e-008	1.74931e-014	0	11	0
0	0	0.031835	0	1000	2135.14	530	658.26	5.09176	1.1	1241.53	-2.1995e-008	2.54444e-014	0	12	0
0	0	0.037604	0	1000	2135.14	530	658.26	5.09176	1.1	1241.53	-3.84986e-008	3.18055e-014	0	13	0
0	0	0.043903	0	999.994	2135.14	529.999	658.26	5.09174	1.1	1241.53	-6.1141e-008	1.59028e-014	0	14	0
0	0	0.050745	0	999.982	2135.14	529.997	658.26	5.09169	1.10001	1241.54	-8.55523e-008	2.22639e-014	0	15	0
0	0	0.058142	0	999.962	2135.14	529.994	658.26	5.09162	1.10003	1241.56	-1.06377e-007	7.55382e-015	0	16	0
0	0	0.066107	0	999.937	2135.14	529.99	658.26	5.09153	1.10005	1241.57	-1.19756e-007	1.31198e-014	0	17	0
0	0	0.074652	0	999.911	2135.14	529.987	658.26	5.09143	1.10007	1241.59	-1.2666e-007	2.38542e-014	0	18	0
0	0	0.079003	0	999.899	2135.14	529.985	658.26	5.09139	1.10008	1241.6	-1.43712e-007	-1.31074e-022	0	19	0
0	0	0.083791	0	999.886	2135.14	529.983	658.26	5.09134	1.10009	1241.61	-1.70312e-007	-2.70347e-014	0	20	0
0	0	0.088138	0	999.875	2135.14	529.981	658.26	5.0913	1.1001	1241.62	-2.09911e-007	-1.74931e-014	0	21	0
0	0	0.093535	0	999.863	2135.14	529.979	658.26	5.09126	1.10011	1241.63	-2.74282e-007	-2.22639e-014	0	22	0
0	0	0.097878	0	999.85	2135.14	529.977	658.26	5.09121	1.10012	1241.64	-3.52653e-007	-2.70347e-014	0	23	0
0	0	0.103898	0	999.833	2135.14	529.975	658.26	5.09115	1.10013	1241.65	-4.81781e-007	-3.49861e-014	0	24	0
0	0	0.108237	0	999.811	2135.14	529.971	658.26	5.09107	1.10015	1241.67	-6.1296e-007	-3.81667e-014	0	25	0
0	0	0.114894	0	999.775	2135.14	529.966	658.26	5.09094	1.10018	1241.69	-8.27962e-007	-4.81059e-014	0	26	0
0	0	0.119228	0	999.73	2135.14	529.959	658.26	5.09077	1.10022	1241.73	-1.01286e-006	-3.53837e-014	0	27	0
0	0	0.126538	0	999.647	2135.14	529.947	658.26	5.09047	1.10028	1241.79	-1.3014e-006	-3.93594e-014	0	28	0
0	0	0.130865	0	999.558	2135.14	529.933	658.26	5.09015	1.10036	1241.85	-1.52174e-006	-4.29375e-014	0	29	0
0	0	0.138843	0	999.386	2135.14	529.907	658.26	5.08952	1.1005	1241.98	-1.81169e-006	-2.18663e-014	0	30	0
0	0	0.143163	0	999.234	2135.14	529.884	658.26	5.08897	1.10062	1242.09	-2.02579e-006	-3.65764e-014	0	31	0
0	0	0.14748	0	999.054	2135.14	529.857	658.26	5.08831	1.10076	1242.22	-2.23079e-006	-1.98785e-014	0	32	0
0	0	0.151826	0	998.844	2135.14	529.825	658.26	5.08755	1.10093	1242.38	-2.41589e-006	-1.90833e-014	0	33	0
0	0	0.156137	0	998.607	2135.14	529.789	658.26	5.08669	1.10112	1242.55	-2.57181e-006	-2.22639e-014	0	34	0
0	0	0.160445	0	998.343	2135.14	529.749	658.26	5.08573	1.10134	1242.74	-2.6906e-006	-3.02153e-014	0	35	0
0	0	0.165503	0	998.012	2135.14	529.699	658.26	5.08452	1.1016	1242.99	-2.72361e-006	-5.725e-014	0	36	0
0	0	0.169804	0	997.7	2135.14	529.651	658.26	5.08339	1.10186	1243.21	-2.74052e-006	-6.16232e-014	0	37	0
0	0	0.174102	0	997.37	2135.14	529.601	658.26	5.08219	1.10212	1243.46	-2.70525e-006	-5.96354e-014	0	38	0
0	0	0.179891	0	996.935	2135.14	529.535	658.26	5.0806	1.10247	1243.78	-2.42137e-006	-7.31528e-014	0	39	0
0	0	0.184181	0	996.589	2135.14	529.483	658.26	5.07935	1.10275	1244.03	-2.25866e-006	-5.68524e-014	0	40	0
0	0	0.188468	0	996.247	2135.14	529.431	658.26	5.0781	1.10303	1244.28	-2.04616e-006	-5.725e-014	0	41	0
0	0	0.195009	0	995.797	2135.14	529.363	658.26	5.07646	1.10339	1244.61	-1.31432e-006	-8.34896e-014	0	42	0
0	0	0.199287	0	995.502	2135.14	529.318	658.26	5.07539	1.10363	1244.83	-9.95965e-007	-1.07344e-013	0	43	0
0	0	0.203561	0	995.239	2135.14	529.278	658.26	5.07443	1.10384	1245.02	-6.47445e-007	-8.42847e-014	0	44	0
0	0	0.210878	0	994.967	2135.14	529.237	658.26	5.07344	1.10406	1245.22	5.70748e-007	-7.99115e-014	0	45	0
0	0	0.215141	0	994.844	2135.14	529.218	658.26	5.07299	1.10416	1245.31	9.48799e-007	-1.06946e-013	0	46	0
0	0	0.219401	0	994.783	2135.14	529.208	658.26	5.07277	1.10421	1245.35	1.32898e-006	-1.05356e-013	0	47	0
0	0	0.22752	0	994.993	2135.14	529.24	658.26	5.07353	1.10404	1245.2	2.97311e-006	-9.78021e-014	0	48	0
0	0	0.231767	0	995.171	2135.14	529.267	658.26	5.07418	1.1039	1245.07	3.27885e-006	-8.0309e-014	0	49	0
0	0	0.236009	0	995.433	2135.14	529.307	658.26	5.07514	1.10369	1244.88	3.56263e-006	-7.71285e-014	0	50	0
0	0	0.240247	0	995.784	2135.14	529.361	658.26	5.07641	1.1034	1244.62	3.82191e-006	-1.1609e-013	0	51	0
0	0	0.244959	0	996.294	2135.14	529.438	658.26	5.07827	1.10299	1244.24	4.19918e-006	-1.31198e-013	0	52	0
0	0	0.249187	0	996.837	2135.14	529.52	658.26	5.08025	1.10255	1243.85	4.39388e-006	-1.61811e-013	0	53	0
0	0	0.25341	0	997.467	2135.14	529.616	658.26	5.08254	1.10204	1243.39	4.55862e-006	-1.45113e-013	0	54	0
0	0	0.257629	0	998.182	2135.14	529.725	658.26	5.08514	1.10147	1242.86	4.69441e-006	-1.61016e-013	0	55	0
0	0	0.263221	0	999.319	2135.14	529.897	658.26	5.08928	1.10055	1242.03	5.41957e-006	-1.76918e-013	0	56	0
0	0	0.267428	0	1000.21	2135.14	530.032	658.26	5.09253	1.09983	1241.37	5.47107e-006	-1.59028e-013	0	57	0
0	0	0.27163	0	1001.16	2135.14	530.176	658.26	5.09598	1.09906	1240.68	5.5021e-006	-1.7334e-013	0	58	0
0	0	0.275827	0	1002.16	2135.14	530.326	658.26	5.0996	1.09826	1239.95	5.51877e-006	-1.53064e-013	0	59	0
0	0	0.282337	0	1003.92	2135.14	530.593	658.26	5.10601	1.09684	1238.66	7.1533e-006	-1.61811e-013	0	60	0
0	0	0.28652	0	1004.97	2135.14	530.751	658.26	5.1098	1.096	1237.89	7.10751e-006	-1.78111e-013	0	61	0
0	0	0.290698	0	1005.99	2135.14	530.906	658.26	5.11353	1.09517	1237.14	7.07118e-006	-1.59425e-013	0	62	0
0	0	0.29487	0	1006.98	2135.14	531.054	658.26	5.11712	1.09438	1236.41	7.05354e-006	-1.86062e-013	0	63	0
0	0	0.302339	0	1008.9	2135.14	531.343	658.26	5.12407	1.09284	1235.01	1.06402e-005	-1.74931e-013	0	64	0
0	0	0.306495	0	1009.65	2135.14	531.456	658.26	5.12681	1.09224	1234.46	1.05996e-005	-1.68569e-013	0	65	0
0	0	0.310645	0	1010.27	2135.14	531.55	658.26	5.12906	1.09174	1234	1.05954e-005	-1.68569e-013	0	66	0
0	0	0.31479	0	1010.74	2135.14	531.62	658.26	5.13074	1.09137	1233.66	1.0635e-005	-1.47896e-013	0	67	0
0	0	0.318928	0	1011.02	2135.14	531.662	658.26	5.13176	1.09114	1233.46	1.07206e-005	-1.22451e-013	0	68	0
0	0	0.323264	0	1011.11	2135.14	531.676	658.26	5.13209	1.09107	1233.39	1.10358e-005	-1.18078e-013	0	69	0
0	0	0.32739	0	1010.95	2135.14	531.652	658.26	5.13153	1.09119	1233.51	1.12145e-005	-1.41535e-013	0	70	0
0	0	0.33151	0	1010.56	2135.14	531.593	658.26	5.1301	1.09151	1233.8	1.1437e-005	-1.25632e-013	0	71	0
0	0	0.335623	0	1009.91	2135.14	531.496	658.26	5.12776	1.09203	1234.27	1.16975e-005	-9.70069e-014	0	72	0
0	0	0.33973	0	1009.01	2135.14	531.36	658.26	5.12448	1.09275	1234.93	1.19908e-005	-1.06946e-013	0	73	0
0	0	0.345155	0	1007.52	2135.14	531.135	658.26	5.11906	1.09395	1236.02	1.38579e-005	-9.4224e-014	0	74	0
0	0	0.349247	0	1006	2135.14	530.906	658.26	5.11355	1.09517	1237.13	1.41534e-005	-9.26337e-014	0	75	0
0	0	0.353332	0	1004.22	2135.14	530.638	658.26	5.1071	1.0966	1238.44	1.44517e-005	-7.7526e-014	0	76	0
0	0	0.357411	0	1002.19	2135.14	530.331	658.26	5.09972	1.09823	1239.92	1.47471e-005	-7.11649e-014	0	77	0
0	0	0.361482	0	999.919	2135.14	529.988	658.26	5.09146	1.10007	1241.59	1.50324e-005	-6.87795e-014	0	78	0
0	0	0.368059	0	995.988	2135.14	529.392	658.26	5.07715	1.10324	1244.47	1.83157e-005	-5.64549e-014	0	79	0
0	0	0.372113	0	993.148	2135.14	528.96	658.26	5.06681	1.10554	1246.55	1.84741e-005	-4.92986e-014	0	80	0
0	0	0.376159	0	990.117	2135.14	528.498	658.26	5.05576	1.10799	1248.78	1.86037e-005	-7.47431e-014	0	81	0
0	0	0.380198	0	986.913	2135.14	528.009	658.26	5.04407	1.11059	1251.13	1.8705e-005	-5.36719e-014	0	82	0
0	0	0.384231	0	983.55	2135.14	527.494	658.26	5.03179	1.11333	1253.6	1.87784e-005	-7.87187e-014	0	83	0
0	0	0.392032	0	976.985	2135.14	526.486	658.26	5.00777	1.11868	1258.42	2.26086e-005	-8.74653e-014	0	84	0
0	0	0.396043	0	973.256	2135.14	525.911	658.26	4.99411	1.12173	1261.16	2.24986e-005	-1.15295e-013	0	85	0
0	0	0.400045	0	969.429	2135.14	525.319	658.26	4.98008	1.12487	1263.98	2.23562e-005	-1.0297e-013	0	86	0
0	0	0.40404	0	965.517	2135.14	524.713	658.26	4.96572	1.12808	1266.86	2.21848e-005	-8.74653e-014	0	87	0
0	0	0.408028	0	961.531	2135.14	524.093	658.26	4.95106	1.13137	1269.8	2.19861e-005	-6.48038e-014	0	88	0
0	0	0.412008	0	957.485	2135.14	523.462	658.26	4.93617	1.13471	1272.78	2.17612e-005	-7.99114e-014	0	89	0
0	0	0.417138	0	952.25	2135.14	522.642	658.26	4.91688	1.13904	1276.64	2.19489e-005	-1.145e-013	0	90	0
0	0	0.4211	0	948.102	2135.14	521.991	658.26	4.90157	1.14249	1279.7	2.16561e-005	-1.13307e-013	0	91	0
0	0	0.425053	0	943.926	2135.14	521.333	658.26	4.88614	1.14597	1282.79	2.13384e-005	-8.66701e-014	0	92	0
0	0	0.428999	0	939.726	2135.14	520.669	658.26	4.8706	1.14947	1285.9	2.09963e-005	-8.78628e-014	0	93	0
0	0	0.432936	0	935.511	2135.14	520.001	658.26	4.85499	1.153	1289.01	2.06294e-005	-7.91163e-014	0	94	0
0	0	0.436865	0	931.287	2135.14	519.329	658.26	4.83932	1.15655	1292.14	2.02371e-005	-8.3092e-014	0	95	0
0	0	0.443451	0	924.347	2135.14	518.22	658.26	4.81353	1.16239	1297.29	2.06566e-005	-8.74653e-014	0	96	0
0	0	0.446506	0	921.019	2135.14	517.687	658.26	4.80115	1.16521	1299.76	2.01137e-005	-7.19601e-014	0	97	0
0	0	0.5	0	872.97	2135.14	509.822	658.26	4.62087	1.20656	1335.62	-6.20311e-005	-8.38883e-014	0	98	0
0	0	0.55	0	830.452	2135.14	502.6	658.26	4.45898	1.2444	1367.73	-3.36539e-005	-1.31198e-014	0	99	0
0	0	0.6	0	784.712	2135.14	494.531	658.26	4.28214	1.28662	1402.73	-0.000140982	3.97571e-014	0	100	0
0	0	0.65	0	739.644	2135.14	486.243	658.26	4.10499	1.32997	1437.79	-0.00011543	1.84835e-008	0	101	0
0	0	0.692991	0	702.424	2135.14	479.123	658.26	3.95636	1.36727	1467.25	-9.306e-005	2.49841e-008	0	102	0
0	0	0.815762	0	607.659	2135.14	459.689	658.26	3.56729	1.46964	1544.79	0.000131641	-4.40836e-008	0	103	0
0	0	0.938482	0	523.81	2135.14	440.595	658.26	3.20832	1.57166	1617.35	4.21936e-005	7.22295e-009	0	104	0
0	0	1.06128	0	447.33	2135.14	421.168	658.26	2.86626	1.67771	1687.99	-1.49817e-006	1.13797e-007	0	105	0
0	0	1.18428	0	381.752	2135.14	402.518	658.26	2.55941	1.78235	1753.12	8.29359e-005	5.75308e-007	0	106	0
0	0	1.30758	0	327.033	2135.14	385.112	658.26	2.29164	1.88317	1811.8	2.85252e-005	2.12456e-007	0	107	0
0	0	1.43124	0	280.296	2135.14	368.512	658.26	2.05262	1.98275	1866.04	-0.000106571	-5.6e-007	0	108	0