VARIABLES = "X(in)","Y(in)","Z(in)","R(in)","P(psia)","PT(psia)","T(R)","TT(R)","RHO(lbm/ft3)","Mach","Velocity(ft/s)","Theta(deg)","Psi(deg)","I","K","BodyFlag"
TITLE = "Volume Mesh Plot"
text  x=5  y=93  t="Characteristic Mesh Plot" 
zone t="All data" I = 163 J = 1 K = 45
1	0	0	1	1000	2135.14	530	658.26	5.09176	1.1	1241.53	0	0	137	0	1
1	0	0.000212	1	1000	2135.14	530	658.26	5.09176	1.1	1241.53	0	0	137	1	1
1	0	0.000847	1	1000	2135.14	530	658.26	5.09176	1.1	1241.53	0	0	137	2	1
1	0	0.00191	1	989.924	2135.14	528.469	658.26	5.05506	1.10815	1248.92	0.159432	0	137	3	1
1.00001	0	0.003404	1.00001	986.39	2135.14	527.929	658.26	5.04216	1.11102	1251.51	0.216217	0	137	4	1
1.00001	0	0.005335	1.00001	986.337	2135.14	527.921	658.26	5.04197	1.11106	1251.55	0.216371	0	137	5	1
1.00003	0	0.00771	1.00003	967.122	2135.14	524.962	658.26	4.97161	1.12676	1265.68	0.539567	0	137	6	1
1.00006	0	0.010539	1.00006	960.794	2135.14	523.978	658.26	4.94835	1.13198	1270.34	0.648614	0	137	7	1
1.0001	0	0.01383	1.0001	956.292	2135.14	523.275	658.26	4.93178	1.1357	1273.66	0.726541	0	137	8	1
1.00015	0	0.017594	1.00015	942.623	2135.14	521.127	658.26	4.88132	1.14705	1283.75	0.973741	0	137	9	1
1.00024	0	0.021842	1.00024	926.979	2135.14	518.641	658.26	4.82332	1.16017	1295.34	1.26798	0	137	10	1
1.00035	0	0.026585	1.00035	913.674	2135.14	516.504	658.26	4.77377	1.17144	1305.22	1.52656	0	137	11	1
1.00051	0	0.031835	1.00051	897.128	2135.14	513.814	658.26	4.71186	1.18559	1317.54	1.85995	0	137	12	1
1.00071	0	0.037604	1.00071	884.407	2135.14	511.721	658.26	4.66404	1.19659	1327.05	2.12291	0	137	13	1
1.00096	0	0.043903	1.00096	866.435	2135.14	508.729	658.26	4.59614	1.21229	1340.53	2.50708	0	137	14	1
1.00129	0	0.050745	1.00129	847.661	2135.14	505.554	658.26	4.52478	1.22893	1354.69	2.92188	0	137	15	1
1.00169	0	0.058142	1.00169	829.494	2135.14	502.435	658.26	4.4553	1.24527	1368.45	3.33464	0	137	16	1
1.00219	0	0.066107	1.00219	809.718	2135.14	498.983	658.26	4.37917	1.26334	1383.53	3.79696	0	137	17	1
1.00279	0	0.074652	1.00279	788.184	2135.14	495.155	658.26	4.29566	1.28336	1400.05	4.31593	0	137	18	1
1.00313	0	0.079003	1.00313	778.273	2135.14	493.368	658.26	4.25701	1.29271	1407.7	4.55796	0	137	19	1
1.00352	0	0.083791	1.00352	769.722	2135.14	491.813	658.26	4.22355	1.30084	1414.32	4.76595	0	137	20	1
1.00389	0	0.088138	1.00389	759.96	2135.14	490.023	658.26	4.18522	1.3102	1421.91	5.00912	0	137	21	1
1.00438	0	0.093535	1.00438	745.692	2135.14	487.376	658.26	4.12894	1.32405	1433.05	5.37403	0	137	22	1
1.0048	0	0.097878	1.0048	735.632	2135.14	485.488	658.26	4.08908	1.33393	1440.94	5.63373	0	137	23	1
1.00541	0	0.103898	1.00541	723.796	2135.14	483.244	658.26	4.04197	1.34568	1450.28	5.94044	0	137	24	1
1.00587	0	0.108237	1.00587	713.993	2135.14	481.365	658.26	4.00279	1.35552	1458.04	6.20032	0	137	25	1
1.00662	0	0.114894	1.00662	699.179	2135.14	478.49	658.26	3.9433	1.37059	1469.84	6.59975	0	137	26	1
1.00713	0	0.119228	1.00713	689.853	2135.14	476.657	658.26	3.90565	1.3802	1477.31	6.85475	0	137	27	1
1.00804	0	0.126538	1.00804	674.839	2135.14	473.67	658.26	3.84475	1.39589	1489.41	7.27092	0	137	28	1
1.0086	0	0.130865	1.0086	666.089	2135.14	471.907	658.26	3.80907	1.40516	1496.51	7.51711	0	137	29	1
1.00969	0	0.138843	1.00969	650.977	2135.14	468.823	658.26	3.74714	1.42139	1508.84	7.94697	0	137	30	1
1.0103	0	0.143163	1.0103	643.213	2135.14	467.219	658.26	3.71517	1.42984	1515.22	8.1702	0	137	31	1
1.01093	0	0.14748	1.01093	633.189	2135.14	465.127	658.26	3.67372	1.44088	1523.49	8.46861	0	137	32	1
1.01159	0	0.151826	1.01159	624.278	2135.14	463.247	658.26	3.63671	1.45081	1530.89	8.73509	0	137	33	1
1.01226	0	0.156137	1.01226	614.566	2135.14	461.176	658.26	3.59621	1.46176	1538.99	9.03193	0	137	34	1
1.01296	0	0.160445	1.01296	606.719	2135.14	459.486	658.26	3.56335	1.47071	1545.58	9.27055	0	137	35	1
1.01379	0	0.165503	1.01379	599.424	2135.14	457.901	658.26	3.53269	1.47912	1551.73	9.48882	0	137	36	1
1.01452	0	0.169804	1.01452	590.6	2135.14	455.965	658.26	3.49547	1.4894	1559.21	9.76585	0	137	37	1
1.01527	0	0.174102	1.01527	582.529	2135.14	454.176	658.26	3.46129	1.49892	1566.09	10.0205	0	137	38	1
1.01631	0	0.179891	1.01631	570.701	2135.14	451.521	658.26	3.41094	1.51306	1576.24	10.4023	0	137	39	1
1.01711	0	0.184181	1.01711	563.572	2135.14	449.903	658.26	3.38045	1.5217	1582.4	10.6314	0	137	40	1
1.01792	0	0.188468	1.01792	556.874	2135.14	448.368	658.26	3.3517	1.52991	1588.21	10.8474	0	137	41	1
1.0192	0	0.195009	1.0192	544.753	2135.14	445.558	658.26	3.29943	1.54496	1598.81	11.2504	0	137	42	1
1.02006	0	0.199287	1.02006	537.311	2135.14	443.81	658.26	3.26717	1.55435	1605.36	11.5007	0	137	43	1
1.02094	0	0.203561	1.02094	529.848	2135.14	442.04	658.26	3.23469	1.56387	1611.98	11.7549	0	137	44	1
1.02249	0	0.210878	1.02249	517.502	2135.14	439.073	658.26	3.18067	1.57988	1623	12.1795	0	137	45	1
1.02342	0	0.215141	1.02342	510.115	2135.14	437.273	658.26	3.14818	1.58962	1629.65	12.4393	0	137	46	1
1.02437	0	0.219401	1.02437	503.143	2135.14	435.557	658.26	3.11738	1.59892	1635.97	12.686	0	137	47	1
1.02623	0	0.22752	1.02623	490.631	2135.14	432.434	658.26	3.06181	1.61589	1647.39	13.131	0	137	48	1
1.02723	0	0.231767	1.02723	483.684	2135.14	430.676	658.26	3.03078	1.62548	1653.8	13.3852	0	137	49	1
1.02825	0	0.236009	1.02825	476.452	2135.14	428.826	658.26	2.99834	1.63558	1660.5	13.6543	0	137	50	1
1.02929	0	0.240247	1.02929	469.473	2135.14	427.022	658.26	2.9669	1.64547	1667.02	13.9165	0	137	51	1
1.03047	0	0.244959	1.03047	463.537	2135.14	425.472	658.26	2.94006	1.65398	1672.6	14.1345	0	137	52	1
1.03154	0	0.249187	1.03154	456.587	2135.14	423.64	658.26	2.90851	1.66406	1679.17	14.4014	0	137	53	1
1.03264	0	0.25341	1.03264	448.211	2135.14	421.405	658.26	2.8703	1.6764	1687.15	14.7338	0	137	54	1
1.03376	0	0.257629	1.03376	443.036	2135.14	420.009	658.26	2.84659	1.68412	1692.11	14.9311	0	137	55	1
1.03526	0	0.263221	1.03526	435.063	2135.14	417.835	658.26	2.8099	1.69618	1699.81	15.244	0	137	56	1
1.03642	0	0.267428	1.03642	427.566	2135.14	415.765	658.26	2.77523	1.7077	1707.11	15.5508	0	137	57	1
1.0376	0	0.27163	1.0376	422.355	2135.14	414.311	658.26	2.75102	1.71582	1712.22	15.758	0	137	58	1
1.03879	0	0.275827	1.03879	417.055	2135.14	412.819	658.26	2.72632	1.72416	1717.45	15.9712	0	137	59	1
1.04068	0	0.282337	1.04068	405.454	2135.14	409.505	658.26	2.67194	1.74277	1729.01	16.4627	0	137	60	1
1.04193	0	0.28652	1.04193	399.614	2135.14	407.811	658.26	2.64439	1.75233	1734.88	16.7101	0	137	61	1
1.04319	0	0.290698	1.04319	395.93	2135.14	406.733	658.26	2.62695	1.75842	1738.61	16.8567	0	137	62	1
1.04446	0	0.29487	1.04446	390.304	2135.14	405.074	658.26	2.60024	1.76782	1744.34	17.098	0	137	63	1
1.0468	0	0.302339	1.0468	378.473	2135.14	401.527	658.26	2.54369	1.78801	1756.52	17.6208	0	137	64	1
1.04813	0	0.306495	1.04813	373.883	2135.14	400.129	658.26	2.52162	1.79599	1761.29	17.8204	0	137	65	1
1.04947	0	0.310645	1.04947	367.897	2135.14	398.288	658.26	2.49271	1.80655	1767.56	18.0928	0	137	66	1
1.05084	0	0.31479	1.05084	361.959	2135.14	396.441	658.26	2.46391	1.81717	1773.83	18.3667	0	137	67	1
1.05222	0	0.318928	1.05222	357.211	2135.14	394.948	658.26	2.44078	1.82579	1778.88	18.5825	0	137	68	1
1.05369	0	0.323264	1.05369	351.246	2135.14	393.053	658.26	2.41159	1.83676	1785.27	18.8631	0	137	69	1
1.05511	0	0.32739	1.05511	345.673	2135.14	391.261	658.26	2.3842	1.84717	1791.29	19.1287	0	137	70	1
1.05655	0	0.33151	1.05655	341.125	2135.14	389.783	658.26	2.36175	1.85578	1796.24	19.3426	0	137	71	1
1.058	0	0.335623	1.058	335.477	2135.14	387.928	658.26	2.33376	1.86663	1802.44	19.619	0	137	72	1
1.05948	0	0.33973	1.05948	330.222	2135.14	386.182	658.26	2.30758	1.87688	1808.25	19.8778	0	137	73	1
1.06145	0	0.345155	1.06145	323.745	2135.14	384.002	658.26	2.27517	1.88972	1815.48	20.1978	0	137	74	1
1.06297	0	0.349247	1.06297	318.651	2135.14	382.266	658.26	2.24954	1.89999	1821.21	20.4556	0	137	75	1
1.0645	0	0.353332	1.0645	314.373	2135.14	380.793	658.26	2.22792	1.90874	1826.07	20.6702	0	137	76	1
1.06605	0	0.357411	1.06605	309.041	2135.14	378.936	658.26	2.20087	1.9198	1832.17	20.9484	0	137	77	1
1.06762	0	0.361482	1.06762	303.968	2135.14	377.149	658.26	2.175	1.93049	1838.02	21.2158	0	137	78	1
1.0702	0	0.368059	1.0702	297.176	2135.14	374.721	658.26	2.14017	1.94508	1845.94	21.5683	0	137	79	1
1.07181	0	0.372113	1.07181	292.81	2135.14	373.14	658.26	2.11767	1.95462	1851.08	21.8019	0	137	80	1
1.07344	0	0.376159	1.07344	286.744	2135.14	370.915	658.26	2.08624	1.96811	1858.29	22.1433	0	137	81	1
1.0751	0	0.380198	1.0751	282.822	2135.14	369.458	658.26	2.06581	1.97698	1862.99	22.3573	0	137	82	1
1.07676	0	0.384231	1.07676	279.405	2135.14	368.178	658.26	2.04796	1.9848	1867.12	22.5418	0	137	83	1
1.08005	0	0.392032	1.08005	269.716	2135.14	364.483	658.26	1.99697	2.0075	1878.97	23.0944	0	137	84	1
1.08177	0	0.396043	1.08177	266.194	2135.14	363.117	658.26	1.97831	2.01594	1883.33	23.2946	0	137	85	1
1.0835	0	0.400045	1.0835	261.452	2135.14	361.257	658.26	1.95308	2.02748	1889.26	23.5778	0	137	86	1
1.08526	0	0.40404	1.08526	256.872	2135.14	359.438	658.26	1.92858	2.03882	1895.04	23.8548	0	137	87	1
1.08703	0	0.408028	1.08703	253.193	2135.14	357.959	658.26	1.90881	2.04808	1899.72	24.075	0	137	88	1
1.08882	0	0.412008	1.08882	248.772	2135.14	356.162	658.26	1.88494	2.05937	1905.39	24.349	0	137	89	1
1.09116	0	0.417138	1.09116	243.551	2135.14	354.01	658.26	1.8566	2.07297	1912.17	24.6735	0	137	90	1
1.09299	0	0.4211	1.09299	240.27	2135.14	352.641	658.26	1.8387	2.08165	1916.47	24.8764	0	137	91	1
1.09483	0	0.425053	1.09483	236.737	2135.14	351.152	658.26	1.81934	2.09114	1921.13	25.0995	0	137	92	1
1.09669	0	0.428999	1.09669	231.608	2135.14	348.961	658.26	1.7911	2.10516	1927.97	25.4415	0	137	93	1
1.09858	0	0.432936	1.09858	228.159	2135.14	347.468	658.26	1.77201	2.11476	1932.62	25.6667	0	137	94	1
1.10047	0	0.436865	1.10047	225.27	2135.14	346.206	658.26	1.75596	2.12292	1936.54	25.8529	0	137	95	1
1.1037	0	0.443451	1.1037	217.983	2135.14	342.968	658.26	1.71519	2.14395	1946.56	26.349	0	137	96	1
1.10522	0	0.446506	1.10522	218.109	2135.14	343.025	658.26	1.7159	2.14358	1946.38	26.3177	0	137	97	1
1.129	0	0.5	1.129	182.391	2135.14	325.937	658.26	1.51013	2.25786	1998.44	28.2516	0	137	98	1
1.16	0	0.55	1.16	160.101	2135.14	314.022	658.26	1.37587	2.34118	2033.95	29.6294	0	137	99	1
1.186	0	0.6	1.186	189.341	2135.14	329.439	658.26	1.55101	2.23397	1987.88	26.4914	0.0101906	137	100	1
1.21	0	0.65	1.21	203.007	2135.14	336.064	658.26	1.63017	2.18944	1967.76	24.5904	0.0109673	137	101	1
1.2289	0	0.692991	1.2289	195.992	2135.14	332.704	658.26	1.58973	2.21192	1977.99	24.5437	0.00994998	137	102	1
1.29057	1.78173e-005	0.815762	1.29057	153.406	2135.14	310.212	658.26	1.33452	2.36851	2045.17	26.6358	0.00651713	137	103	1
1.35206	1.78173e-005	0.938482	1.35206	141.069	2135.14	302.87	658.26	1.25695	2.4222	2066.63	26.559	0	137	104	1
1.41332	1.78173e-005	1.06128	1.41332	130.243	2135.14	296.039	658.26	1.18727	2.47342	2086.4	26.4382	0	137	105	1
1.4743	1.78173e-005	1.18428	1.4743	120.738	2135.14	289.698	658.26	1.12472	2.52213	2104.58	26.2796	0	137	106	1
1.53496	1.78173e-005	1.30758	1.53496	112.284	2135.14	283.751	658.26	1.06788	2.5689	2121.5	26.0916	0	137	107	1
1.59526	1.78173e-005	1.43124	1.59526	104.62	2135.14	278.077	658.26	1.0153	2.61456	2137.51	25.8773	0	137	108	1
1.65518	1.78173e-005	1.55537	1.65518	97.631	2135.14	272.638	658.26	0.966372	2.65933	2152.74	25.6353	0	137	109	1
1.71468	1.78173e-005	1.68005	1.71468	91.2088	2135.14	267.389	658.26	0.920527	2.70352	2167.34	25.3727	0	137	110	1
1.77375	1.78173e-005	1.80534	1.77375	85.3046	2135.14	262.325	658.26	0.877559	2.74712	2181.34	25.0936	0	137	111	1
1.83238	1.78173e-005	1.93134	1.83238	79.9282	2135.14	257.491	658.26	0.837688	2.78966	2194.61	24.794	0	137	112	1
1.89054	1.78173e-005	2.05812	1.89054	75.0512	2135.14	252.9	658.26	0.800851	2.83094	2207.15	24.4757	0	137	113	1
1.94823	1.78173e-005	2.18579	1.94823	70.6205	2135.14	248.542	658.26	0.766788	2.87097	2218.98	24.1439	0	137	114	1
2.00544	1.78173e-005	2.31441	2.00544	66.6267	2135.14	244.442	658.26	0.735557	2.90939	2230.06	23.7957	0	137	115	1
2.06215	1.78173e-005	2.44409	2.06215	63.0473	2135.14	240.615	658.26	0.70711	2.94596	2240.34	23.4286	0	137	116	1
2.11835	1.78173e-005	2.57493	2.11835	59.8405	2135.14	237.053	658.26	0.681229	2.98064	2249.88	23.0439	0	137	117	1
2.17403	1.78173e-005	2.70706	2.17403	56.9576	2135.14	233.733	658.26	0.657621	3.01355	2258.73	22.6445	0	137	118	1
2.22918	1.78173e-005	2.84056	2.22918	54.3022	2135.14	230.566	658.26	0.635573	3.04547	2267.14	22.2451	0	137	119	1
2.2838	1.78173e-005	2.9754	2.2838	51.8181	2135.14	227.502	658.26	0.614667	3.07687	2275.24	21.8544	0	137	120	1
2.33789	1.78173e-005	3.11157	2.33789	49.4791	2135.14	224.519	658.26	0.594719	3.10795	2283.11	21.4748	0	137	121	1
2.39148	1.78173e-005	3.24908	2.39148	47.2973	2135.14	221.645	658.26	0.575867	3.13838	2290.66	21.0995	0	137	122	1
2.44455	1.78173e-005	3.38796	2.44455	45.2547	2135.14	218.867	658.26	0.557991	3.16827	2297.94	20.7291	0	137	123	1
2.49708	1.78173e-005	3.52808	2.49708	43.3276	2135.14	216.162	658.26	0.540913	3.19782	2305	20.3678	0	137	124	1
2.5491	1.78173e-005	3.66954	2.5491	41.5316	2135.14	213.563	658.26	0.524802	3.22666	2311.76	20.0073	0	137	125	1
2.60063	1.78173e-005	3.81244	2.60063	39.8323	2135.14	211.03	658.26	0.509373	3.25521	2318.34	19.654	0	137	126	1
2.65164	1.78173e-005	3.95662	2.65164	38.2318	2135.14	208.571	658.26	0.494668	3.28332	2324.7	19.3057	0	137	127	1
2.70211	1.78173e-005	4.1021	2.70211	36.7318	2135.14	206.2	658.26	0.480726	3.31085	2330.82	18.959	0	137	128	1
2.75215	1.78173e-005	4.24918	2.75215	35.3	2135.14	203.871	658.26	0.467266	3.33827	2336.82	18.6204	0	137	129	1
2.80156	1.78173e-005	4.39723	2.80156	33.9469	2135.14	201.606	658.26	0.454401	3.36532	2342.63	18.2878	0	137	130	1
2.85058	1.78173e-005	4.547	2.85058	32.6645	2135.14	199.401	658.26	0.442073	3.39205	2348.29	17.9579	0	137	131	1
2.89899	1.78173e-005	4.69781	2.89899	31.4544	2135.14	197.261	658.26	0.430311	3.41833	2353.75	17.632	0	137	132	1
2.947	1.78173e-005	4.85035	2.947	30.2983	2135.14	195.162	658.26	0.418954	3.44448	2359.11	17.3114	0	137	133	1
2.99439	1.78173e-005	5.00386	2.99439	29.2057	2135.14	193.125	658.26	0.408106	3.47021	2364.29	16.995	0	137	134	1
3.04142	1.78173e-005	5.15927	3.04142	28.1604	2135.14	191.124	658.26	0.397618	3.49582	2369.37	16.6828	0	137	135	1
3.08777	1.78173e-005	5.31542	3.08777	27.1678	2135.14	189.175	658.26	0.387557	3.52111	2374.31	16.377	0	137	136	1
3.13378	1.78173e-005	5.47354	3.13378	26.2225	2135.14	187.27	658.26	0.377876	3.54615	2379.12	16.0728	0	137	137	1
3.17915	1.78173e-005	5.63255	3.17915	25.321	2135.14	185.408	658.26	0.36855	3.57095	2383.82	15.7754	0	137	138	1
3.22409	1.78173e-005	5.7932	3.22409	24.4636	2135.14	183.592	658.26	0.359592	3.59545	2388.4	15.4801	0	137	139	1
3.26857	1.78173e-005	5.95541	3.26857	23.6428	2135.14	181.81	658.26	0.350933	3.6198	2392.87	15.1895	0	137	140	1
3.31241	1.78173e-005	6.11848	3.31241	22.8619	2135.14	180.074	658.26	0.342614	3.64383	2397.23	14.904	0	137	141	1
3.35592	1.78173e-005	6.2836	3.35592	22.1145	2135.14	178.372	658.26	0.334576	3.66768	2401.49	14.6208	0	137	142	1
3.39879	1.78173e-005	6.44958	3.39879	21.4026	2135.14	176.712	658.26	0.326846	3.69124	2405.64	14.3426	0	137	143	1
3.44116	1.78173e-005	6.61696	3.44116	20.7228	2135.14	175.09	658.26	0.319397	3.71453	2409.69	14.0679	0	137	144	1
3.4832	1.78173e-005	6.78643	3.4832	20.076	2135.14	173.511	658.26	0.312244	3.73749	2413.62	13.7929	0	137	145	1
3.52462	1.78173e-005	6.95691	3.52462	19.4571	2135.14	171.965	658.26	0.305338	3.76023	2417.47	13.5231	0	137	146	1
3.56554	1.78173e-005	7.12878	3.56554	18.8594	2135.14	170.439	658.26	0.298609	3.78295	2421.26	13.2601	0	137	147	1
3.60595	1.78173e-005	7.30202	3.60595	18.287	2135.14	168.945	658.26	0.292106	3.80546	2424.96	13.001	0	137	148	1
3.64585	1.78173e-005	7.4766	3.64585	17.741	2135.14	167.488	658.26	0.285849	3.82766	2428.57	12.7444	0	137	149	1
3.68526	1.78173e-005	7.65267	3.68526	17.218	2135.14	166.062	658.26	0.279805	3.84963	2432.1	12.4909	0	137	150	1
3.72413	1.78173e-005	7.82995	3.72413	16.7165	2135.14	164.666	658.26	0.273959	3.87141	2435.55	12.2417	0	137	151	1
3.76255	1.78173e-005	8.00889	3.76255	16.2365	2135.14	163.301	658.26	0.268317	3.89292	2438.91	11.9947	0	137	152	1
3.80046	1.78173e-005	8.18921	3.80046	15.7746	2135.14	161.96	658.26	0.262842	3.9143	2442.21	11.7521	0	137	153	1
3.83777	1.78173e-005	8.37044	3.83777	15.331	2135.14	160.645	658.26	0.257541	3.93548	2445.44	11.5146	0	137	154	1
3.87471	1.78173e-005	8.55369	3.87471	14.9077	2135.14	159.365	658.26	0.252441	3.95633	2448.59	11.2771	0	137	155	1
3.91107	1.78173e-005	8.73802	3.91107	14.5034	2135.14	158.118	658.26	0.247532	3.97686	2451.65	11.0424	0	137	156	1
3.94693	1.78173e-005	8.92376	3.94693	14.1118	2135.14	156.886	658.26	0.24274	3.99736	2454.66	10.8134	0	137	157	1
3.98224	1.78173e-005	9.11062	3.98224	13.7384	2135.14	155.689	658.26	0.238134	4.01749	2457.59	10.5865	0	137	158	1
4.01718	1.78173e-005	9.29964	4.01718	13.3783	2135.14	154.512	658.26	0.233659	4.03749	2460.47	10.3616	0	137	159	1
4.05154	1.78173e-005	9.48962	4.05154	14.3244	2135.14	157.558	658.26	0.245347	3.98615	2453.02	9.19192	0	137	160	1
4.05474	1.78173e-005	9.50964	4.05474	14.395	2135.14	157.78	658.26	0.24621	3.98248	2452.48	9.09665	0	137	161	1
4.05474	1.78173e-005	9.50964	4.05474	14.395	2135.14	157.78	658.26	0.24621	3.98248	2452.48	9.09665	0	137	161	1
0.989821	0.142315	0	1	1000	2135.14	530	658.26	5.09176	1.1	1241.53	0	0	138	0	1
0.989821	0.142315	0.000212	1	1000	2135.14	530	658.26	5.09176	1.1	1241.53	0	0	138	1	1
0.989821	0.142315	0.000847	1	1000	2135.14	530	658.26	5.09176	1.1	1241.53	0	0	138	2	1
0.989821	0.142315	0.00191	1	989.924	2135.14	528.469	658.26	5.05506	1.10815	1248.92	0.157809	0.0226897	138	3	1
0.989831	0.142316	0.003404	1.00001	986.39	2135.14	527.929	658.26	5.04216	1.11102	1251.51	0.214016	0.0307684	138	4	1
0.989831	0.142316	0.005335	1.00001	986.337	2135.14	527.921	658.26	5.04197	1.11106	1251.55	0.21417	0.0307859	138	5	1
0.989851	0.142319	0.00771	1.00003	967.122	2135.14	524.962	658.26	4.97161	1.12676	1265.68	0.534076	0.0767798	138	6	1
0.989881	0.142323	0.010539	1.00006	960.795	2135.14	523.978	658.26	4.94836	1.13198	1270.34	0.642015	0.0922859	138	7	1
0.98992	0.142329	0.01383	1.0001	956.293	2135.14	523.276	658.26	4.93178	1.13569	1273.66	0.719152	0.103358	138	8	1
0.98997	0.142336	0.017594	1.00015	942.624	2135.14	521.128	658.26	4.88133	1.14705	1283.75	0.963838	0.138525	138	9	1
0.990059	0.142349	0.021842	1.00024	926.981	2135.14	518.642	658.26	4.82333	1.16017	1295.33	1.25509	0.180386	138	10	1
0.990168	0.142365	0.026585	1.00035	913.679	2135.14	516.504	658.26	4.77379	1.17143	1305.21	1.51104	0.217165	138	11	1
0.990326	0.142387	0.031835	1.00051	897.136	2135.14	513.815	658.26	4.71189	1.18559	1317.54	1.84104	0.2646	138	12	1
0.990524	0.142416	0.037604	1.00071	884.42	2135.14	511.724	658.26	4.66409	1.19658	1327.04	2.10133	0.301997	138	13	1
0.990772	0.142451	0.043903	1.00096	866.456	2135.14	508.732	658.26	4.59622	1.21228	1340.52	2.4816	0.356674	138	14	1
0.991098	0.142498	0.050745	1.00129	847.692	2135.14	505.56	658.26	4.5249	1.22891	1354.66	2.89218	0.415726	138	15	1
0.991494	0.142555	0.058142	1.00169	829.539	2135.14	502.443	658.26	4.45547	1.24523	1368.42	3.30075	0.47449	138	16	1
0.991989	0.142626	0.066107	1.00219	809.782	2135.14	498.994	658.26	4.37941	1.26328	1383.48	3.75837	0.540337	138	17	1
0.992583	0.142711	0.074652	1.00279	788.27	2135.14	495.17	658.26	4.296	1.28328	1399.99	4.27207	0.614296	138	18	1
0.99292	0.14276	0.079003	1.00313	778.37	2135.14	493.385	658.26	4.25739	1.29261	1407.63	4.51165	0.648773	138	19	1
0.993306	0.142815	0.083791	1.00352	769.833	2135.14	491.833	658.26	4.22398	1.30073	1414.24	4.71754	0.678355	138	20	1
0.993672	0.142868	0.088138	1.00389	760.082	2135.14	490.045	658.26	4.1857	1.31008	1421.82	4.95824	0.713005	138	21	1
0.994157	0.142937	0.093535	1.00438	745.827	2135.14	487.401	658.26	4.12948	1.32391	1432.94	5.31944	0.765092	138	22	1
0.994573	0.142997	0.097878	1.0048	735.778	2135.14	485.516	658.26	4.08965	1.33378	1440.83	5.57651	0.80215	138	23	1
0.995177	0.143083	0.103898	1.00541	723.956	2135.14	483.274	658.26	4.04261	1.34552	1450.15	5.88013	0.845883	138	24	1
0.995632	0.143149	0.108237	1.00587	714.163	2135.14	481.397	658.26	4.00347	1.35535	1457.9	6.13736	0.883004	138	25	1
0.996374	0.143255	0.114894	1.00662	699.364	2135.14	478.526	658.26	3.94404	1.3704	1469.69	6.53275	0.940116	138	26	1
0.996879	0.143327	0.119228	1.00713	690.045	2135.14	476.695	658.26	3.90643	1.38	1477.16	6.78516	0.976594	138	27	1
0.99778	0.143456	0.126538	1.00804	675.046	2135.14	473.712	658.26	3.84559	1.39567	1489.25	7.1971	1.03618	138	28	1
0.998334	0.143536	0.130865	1.0086	666.303	2135.14	471.95	658.26	3.80995	1.40493	1496.33	7.4408	1.07145	138	29	1
0.999413	0.14369	0.138843	1.00969	651.205	2135.14	468.87	658.26	3.74808	1.42114	1508.65	7.86629	1.13309	138	30	1
1.00002	0.143777	0.143163	1.0103	643.447	2135.14	467.267	658.26	3.71613	1.42959	1515.02	8.08726	1.16511	138	31	1
1.00064	0.143866	0.14748	1.01093	633.428	2135.14	465.177	658.26	3.67471	1.44062	1523.29	8.38262	1.2081	138	32	1
1.00129	0.143959	0.151826	1.01159	624.522	2135.14	463.299	658.26	3.63773	1.45054	1530.68	8.64638	1.2465	138	33	1
1.00196	0.144054	0.156137	1.01226	614.814	2135.14	461.229	658.26	3.59725	1.46148	1538.78	8.94018	1.28938	138	34	1
1.00265	0.144153	0.160445	1.01296	606.971	2135.14	459.541	658.26	3.56441	1.47043	1545.37	9.17637	1.3238	138	35	1
1.00347	0.144271	0.165503	1.01379	599.681	2135.14	457.957	658.26	3.53378	1.47883	1551.51	9.39243	1.35521	138	36	1
1.00419	0.144374	0.169804	1.01452	590.86	2135.14	456.022	658.26	3.49657	1.4891	1558.99	9.66661	1.39535	138	37	1
1.00494	0.14448	0.174102	1.01527	582.791	2135.14	454.234	658.26	3.4624	1.49861	1565.86	9.9187	1.43227	138	38	1
1.00597	0.144627	0.179891	1.01631	570.966	2135.14	451.581	658.26	3.41207	1.51274	1576.01	10.2965	1.48779	138	39	1
1.00676	0.144741	0.184181	1.01711	563.839	2135.14	449.964	658.26	3.38159	1.52138	1582.17	10.5233	1.52108	138	40	1
1.00756	0.144855	0.188468	1.01792	557.142	2135.14	448.43	658.26	3.35286	1.52958	1587.98	10.737	1.55247	138	41	1
1.00883	0.145036	0.195009	1.0192	545.022	2135.14	445.621	658.26	3.30059	1.54463	1598.57	11.1359	1.61135	138	42	1
1.00968	0.145158	0.199287	1.02006	537.58	2135.14	443.874	658.26	3.26834	1.55401	1605.13	11.3836	1.64797	138	43	1
1.01055	0.145282	0.203561	1.02094	530.117	2135.14	442.105	658.26	3.23587	1.56353	1611.74	11.6351	1.68522	138	44	1
1.01208	0.145501	0.210878	1.02249	517.77	2135.14	439.138	658.26	3.18185	1.57953	1622.76	12.0553	1.7476	138	45	1
1.01301	0.145633	0.215141	1.02342	510.383	2135.14	437.338	658.26	3.14936	1.58926	1629.41	12.3124	1.78589	138	46	1
1.01395	0.145767	0.219401	1.02437	503.41	2135.14	435.623	658.26	3.11856	1.59856	1635.72	12.5566	1.82229	138	47	1
1.01579	0.14603	0.22752	1.02623	490.896	2135.14	432.501	658.26	3.06299	1.61553	1647.15	12.9969	1.88809	138	48	1
1.01678	0.146171	0.231767	1.02723	483.946	2135.14	430.743	658.26	3.03195	1.62511	1653.55	13.2484	1.92583	138	49	1
1.01779	0.146316	0.236009	1.02825	476.713	2135.14	428.893	658.26	2.99951	1.63522	1660.26	13.5147	1.9659	138	50	1
1.01882	0.146462	0.240247	1.02929	469.731	2135.14	427.089	658.26	2.96807	1.6451	1666.78	13.7742	2.00502	138	51	1
1.01998	0.146629	0.244959	1.03047	463.793	2135.14	425.539	658.26	2.94122	1.65361	1672.35	13.9898	2.03747	138	52	1
1.02104	0.14678	0.249187	1.03154	456.84	2135.14	423.707	658.26	2.90966	1.66369	1678.93	14.2539	2.07747	138	53	1
1.02213	0.146936	0.25341	1.03264	448.46	2135.14	421.472	658.26	2.87144	1.67603	1686.91	14.5827	2.12754	138	54	1
1.02324	0.147094	0.257629	1.03376	443.283	2135.14	420.076	658.26	2.84772	1.68375	1691.87	14.778	2.15715	138	55	1
1.02473	0.147306	0.263221	1.03526	435.305	2135.14	417.902	658.26	2.81102	1.69581	1699.58	15.0876	2.20434	138	56	1
1.02587	0.14747	0.267428	1.03642	427.805	2135.14	415.832	658.26	2.77633	1.70733	1706.88	15.391	2.25088	138	57	1
1.02704	0.147636	0.27163	1.0376	422.59	2135.14	414.377	658.26	2.75212	1.71545	1711.99	15.596	2.28225	138	58	1
1.02822	0.147804	0.275827	1.03879	417.288	2135.14	412.885	658.26	2.72741	1.7238	1717.22	15.8069	2.31461	138	59	1
1.03009	0.148071	0.282337	1.04068	405.68	2135.14	409.57	658.26	2.673	1.74241	1728.78	16.2931	2.38987	138	60	1
1.03133	0.148248	0.28652	1.04193	399.836	2135.14	407.876	658.26	2.64544	1.75196	1734.66	16.5378	2.42777	138	61	1
1.03258	0.148426	0.290698	1.04319	396.149	2135.14	406.798	658.26	2.62799	1.75806	1738.39	16.6828	2.45011	138	62	1
1.03383	0.148605	0.29487	1.04446	390.519	2135.14	405.137	658.26	2.60126	1.76746	1744.12	16.9214	2.48723	138	63	1
1.03615	0.148936	0.302339	1.0468	378.679	2135.14	401.589	658.26	2.54468	1.78765	1756.3	17.4386	2.56823	138	64	1
1.03747	0.149123	0.306495	1.04813	374.086	2135.14	400.191	658.26	2.52259	1.79564	1761.08	17.636	2.59912	138	65	1
1.03879	0.149313	0.310645	1.04947	368.096	2135.14	398.35	658.26	2.49367	1.80619	1767.35	17.9054	2.64156	138	66	1
1.04015	0.149506	0.31479	1.05084	362.154	2135.14	396.502	658.26	2.46485	1.81682	1773.62	18.1761	2.68435	138	67	1
1.04152	0.149701	0.318928	1.05222	357.402	2135.14	395.008	658.26	2.44171	1.82544	1778.67	18.3896	2.7181	138	68	1
1.04297	0.149909	0.323264	1.05369	351.432	2135.14	393.112	658.26	2.41251	1.83642	1785.07	18.6671	2.7622	138	69	1
1.04438	0.150109	0.32739	1.05511	345.855	2135.14	391.319	658.26	2.3851	1.84683	1791.09	18.9297	2.80409	138	70	1
1.0458	0.150312	0.33151	1.05655	341.303	2135.14	389.841	658.26	2.36263	1.85545	1796.05	19.1412	2.83785	138	71	1
1.04724	0.150517	0.335623	1.058	335.65	2135.14	387.985	658.26	2.33462	1.8663	1802.25	19.4145	2.88172	138	72	1
1.0487	0.150726	0.33973	1.05948	330.391	2135.14	386.238	658.26	2.30843	1.87655	1808.06	19.6704	2.9229	138	73	1
1.05065	0.151004	0.345155	1.06145	323.909	2135.14	384.058	658.26	2.27599	1.88939	1815.29	19.9867	2.974	138	74	1
1.05216	0.151219	0.349247	1.06297	318.811	2135.14	382.321	658.26	2.25034	1.89967	1821.03	20.2416	3.01534	138	75	1
1.05367	0.151435	0.353332	1.0645	314.528	2135.14	380.847	658.26	2.22871	1.90842	1825.89	20.4537	3.0498	138	76	1
1.05521	0.151654	0.357411	1.06605	309.192	2135.14	378.989	658.26	2.20164	1.91948	1831.99	20.7287	3.09473	138	77	1
1.05676	0.151876	0.361482	1.06762	304.115	2135.14	377.201	658.26	2.17575	1.93018	1837.85	20.993	3.13807	138	78	1
1.05932	0.15224	0.368059	1.0702	297.317	2135.14	374.772	658.26	2.1409	1.94477	1845.77	21.3415	3.19533	138	79	1
1.06091	0.152468	0.372113	1.07181	292.947	2135.14	373.19	658.26	2.11837	1.95432	1850.92	21.5724	3.23346	138	80	1
1.06252	0.152698	0.376159	1.07344	286.877	2135.14	370.964	658.26	2.08693	1.96781	1858.13	21.9098	3.28958	138	81	1
1.06417	0.152932	0.380198	1.0751	282.951	2135.14	369.506	658.26	2.06649	1.97669	1862.84	22.1213	3.32477	138	82	1
1.06581	0.153167	0.384231	1.07676	279.532	2135.14	368.225	658.26	2.04862	1.98451	1866.97	22.3036	3.35515	138	83	1
1.06907	0.153631	0.392032	1.08005	269.835	2135.14	364.529	658.26	1.9976	2.00721	1878.82	22.8497	3.44705	138	84	1
1.07077	0.153874	0.396043	1.08177	266.31	2135.14	363.162	658.26	1.97893	2.01566	1883.19	23.0475	3.48041	138	85	1
1.07248	0.154119	0.400045	1.0835	261.564	2135.14	361.302	658.26	1.95368	2.02721	1889.12	23.3272	3.52791	138	86	1
1.07423	0.154367	0.40404	1.08526	256.981	2135.14	359.481	658.26	1.92916	2.03855	1894.9	23.6009	3.57456	138	87	1
1.07598	0.154617	0.408028	1.08703	253.299	2135.14	358.002	658.26	1.90937	2.04781	1899.58	23.8185	3.61173	138	88	1
1.07775	0.15487	0.412008	1.08882	248.875	2135.14	356.204	658.26	1.88549	2.05911	1905.26	24.0892	3.65823	138	89	1
1.08007	0.155201	0.417138	1.09116	243.65	2135.14	354.051	658.26	1.85713	2.07271	1912.04	24.4097	3.71353	138	90	1
1.08188	0.15546	0.4211	1.09299	240.366	2135.14	352.681	658.26	1.83922	2.0814	1916.34	24.6102	3.74819	138	91	1
1.0837	0.155719	0.425053	1.09483	236.83	2135.14	351.191	658.26	1.81986	2.09089	1921.01	24.8306	3.78648	138	92	1
1.08554	0.155982	0.428999	1.09669	231.698	2135.14	349	658.26	1.7916	2.10491	1927.85	25.1684	3.8456	138	93	1
1.08741	0.156249	0.432936	1.09858	228.247	2135.14	347.506	658.26	1.7725	2.11452	1932.5	25.3907	3.88459	138	94	1
1.08928	0.156516	0.436865	1.10047	225.356	2135.14	346.243	658.26	1.75643	2.12267	1936.42	25.5747	3.91692	138	95	1
1.09248	0.156973	0.443451	1.1037	218.064	2135.14	343.004	658.26	1.71564	2.14371	1946.45	26.0646	4.00384	138	96	1
1.09399	0.157188	0.446506	1.10522	218.189	2135.14	343.061	658.26	1.71635	2.14335	1946.27	26.0337	3.99815	138	97	1
1.11753	0.160548	0.5	1.129	182.436	2135.14	325.96	658.26	1.51039	2.25771	1998.37	27.9428	4.34494	138	98	1
1.14822	0.164929	0.55	1.16	160.181	2135.14	314.067	658.26	1.37636	2.34086	2033.82	29.304	4.58741	138	99	1
1.17395	0.168603	0.6	1.186	189.484	2135.14	329.51	658.26	1.55185	2.23349	1987.67	26.2054	4.02779	138	100	1
1.19771	0.171994	0.65	1.21	203.184	2135.14	336.147	658.26	1.63118	2.18889	1967.5	24.3279	3.69757	138	101	1
1.21642	0.174661	0.692991	1.2289	196.129	2135.14	332.771	658.26	1.59052	2.21147	1977.79	24.2821	3.68721	138	102	1
1.27748	0.183381	0.815762	1.29057	153.328	2135.14	310.167	658.26	1.33404	2.36883	2045.31	26.347	4.0587	138	103	1
1.33834	0.19211	0.938482	1.35206	140.344	2135.14	302.425	658.26	1.25234	2.4255	2067.93	26.2675	4.07248	138	104	1
1.39897	0.200894	1.06128	1.41332	129.258	2135.14	295.397	658.26	1.18085	2.47829	2088.25	26.1402	4.10634	138	105	1
1.4593	0.209767	1.18428	1.4743	119.717	2135.14	288.996	658.26	1.11791	2.52759	2106.59	25.9744	4.14153	138	106	1
1.5193	0.218728	1.30758	1.53496	111.356	2135.14	283.08	658.26	1.06157	2.57425	2123.4	25.7801	4.16807	138	107	1
1.57892	0.227757	1.43124	1.59526	103.859	2135.14	277.498	658.26	1.01001	2.61928	2139.13	25.5612	4.18023	138	108	1
1.63815	0.236828	1.55537	1.65518	97.0696	2135.14	272.189	658.26	0.9624	2.66307	2153.99	25.3167	4.17484	138	109	1
1.69696	0.245907	1.68005	1.71468	90.8528	2135.14	267.09	658.26	0.917959	2.70607	2168.17	25.0539	4.15244	138	110	1