VARIABLES = "X/R","R/R","Mach","Pres","Temp","Rho","Theta", "Gamma"
TITLE = "Primary MOC Contour Data file"
text  x=5  y=92  t="MOC Grid Development Contours"
zone t="Wall contour"
0	1	1.17779	212.216	414.892	0.0429112	0	1.4
0.000230286	1	1.17789	212.191	414.878	0.0429076	0.0131944	1.4
0.000920735	1	1.17816	212.115	414.836	0.0428965	0.0527543	1.4
0.00207073	1	1.17865	211.981	414.761	0.0428772	0.118644	1.4
0.00367965	1.00001	1.17938	211.782	414.65	0.0428485	0.210829	1.4
0.00574714	1.00002	1.18039	211.506	414.495	0.0428086	0.329289	1.4
0.00827332	1.00003	1.18174	211.138	414.289	0.0427554	0.474031	1.4
0.0112592	1.00006	1.18349	210.659	414.021	0.0426861	0.645118	1.4
0.0147071	1.00011	1.18573	210.049	413.678	0.0425978	0.842684	1.4
0.0186211	1.00017	1.18855	209.284	413.246	0.0424868	1.06697	1.4
0.0230076	1.00026	1.19204	208.336	412.711	0.0423493	1.31835	1.4
0.027876	1.00039	1.19633	207.178	412.054	0.0421811	1.59738	1.4
0.0332391	1.00055	1.20152	205.78	411.258	0.0419775	1.90481	1.4
0.0391138	1.00077	1.20775	204.11	410.301	0.0417339	2.24162	1.4
0.0455216	1.00104	1.21516	202.136	409.164	0.0414453	2.6091	1.4
0.0524892	1.00138	1.22389	199.828	407.823	0.0411066	3.00879	1.4
0.0600488	1.0018	1.23409	197.154	406.257	0.040713	3.44261	1.4
0.0682387	1.00233	1.2459	194.086	404.44	0.0402594	3.91283	1.4
0.0725912	1.00264	1.25257	192.367	403.414	0.0400044	4.16283	1.4
0.0771036	1.00298	1.2595	190.596	402.349	0.0397409	4.4221	1.4
0.0814532	1.00332	1.26654	188.804	401.264	0.0394737	4.6721	1.4
0.0866942	1.00377	1.27503	186.66	399.957	0.0391531	4.97346	1.4
0.0910403	1.00415	1.28243	184.807	398.818	0.038875	5.22346	1.4
0.097068	1.00472	1.29269	182.258	397.239	0.0384913	5.57036	1.4
0.10141	1.00516	1.30041	180.356	396.05	0.0382039	5.82036	1.4
0.108289	1.00588	1.31265	177.372	394.167	0.0377514	6.2167	1.4
0.112626	1.00636	1.32067	175.435	392.932	0.0374564	6.4667	1.4
0.120429	1.00728	1.3351	171.99	390.712	0.0369295	6.91684	1.4
0.124759	1.00781	1.3434	170.032	389.436	0.0366287	7.16684	1.4
0.129087	1.00837	1.35169	168.092	388.161	0.0363297	7.41684	1.4
0.133564	1.00896	1.36027	166.103	386.843	0.0360221	7.67561	1.4
0.137887	1.00955	1.36881	164.138	385.53	0.0357173	7.92561	1.4
0.142208	1.01016	1.37736	162.192	384.219	0.0354143	8.17561	1.4
0.14778	1.01098	1.38838	159.708	382.528	0.035026	8.49832	1.4
0.152094	1.01163	1.39715	157.751	381.183	0.0347189	8.74832	1.4
0.156406	1.01231	1.40593	155.813	379.839	0.0344138	8.99832	1.4
0.163168	1.0134	1.4197	152.81	377.733	0.0339386	9.39083	1.4
0.167471	1.01412	1.42868	150.874	376.359	0.0336309	9.64083	1.4
0.171771	1.01486	1.43767	148.958	374.988	0.0333253	9.89083	1.4
0.179825	1.0163	1.45452	145.418	372.419	0.0327577	10.3596	1.4
0.184116	1.0171	1.46371	143.517	371.022	0.0324512	10.6096	1.4
0.188403	1.01791	1.47289	141.636	369.626	0.0321469	10.8596	1.4
0.192686	1.01874	1.48208	139.775	368.232	0.0318445	11.1096	1.4
0.197856	1.01977	1.49319	137.551	366.548	0.0314819	11.4116	1.4
0.202131	1.02064	1.50256	135.698	365.131	0.0311783	11.6616	1.4
0.206403	1.02153	1.51193	133.865	363.714	0.0308769	11.9116	1.4
0.21067	1.02244	1.52131	132.051	362.299	0.0305775	12.1616	1.4
0.217373	1.02391	1.53608	129.237	360.077	0.0301106	12.5548	1.4
0.221629	1.02487	1.54563	127.444	358.642	0.0298117	12.8048	1.4
0.225882	1.02585	1.55519	125.671	357.209	0.0295148	13.0548	1.4
0.230131	1.02684	1.56476	123.917	355.778	0.0292199	13.3048	1.4
0.238493	1.02886	1.58366	120.514	352.958	0.0286445	13.7976	1.4
0.242728	1.02991	1.59339	118.793	351.511	0.0283516	14.0476	1.4
0.246959	1.03097	1.60313	117.091	350.064	0.0280609	14.2976	1.4
0.251185	1.03206	1.61289	115.407	348.619	0.0277722	14.5476	1.4
0.255406	1.03317	1.62266	113.743	347.175	0.0274855	14.7976	1.4
0.261346	1.03475	1.63646	111.429	345.142	0.0270849	15.1499	1.4
0.26252	1.03507	1.63922	110.97	344.736	0.0270053	15.2196	1.4
0.283232	1.04079	1.66052	107.491	341.612	0.0263977	15.6366	1.4
0.315344	1.0499	1.68538	103.552	337.988	0.0257031	16.0174	1.4
0.35465	1.06131	1.71222	99.445	334.102	0.0249707	16.3466	1.4
0.399764	1.07466	1.74042	95.288	330.051	0.0242206	16.6233	1.4
0.449866	1.08973	1.76967	91.1431	325.884	0.0234633	16.8468	1.4
0.504308	1.10631	1.79955	87.0795	321.665	0.0227112	17.023	1.4
0.562647	1.12425	1.82986	83.1299	317.427	0.0219706	17.1548	1.4
0.624476	1.1434	1.86033	79.3268	313.208	0.0212478	17.2475	1.4
0.689496	1.16362	1.89083	75.684	309.029	0.0205462	17.3044	1.4
0.757425	1.18481	1.92122	72.2111	304.91	0.0198683	17.3292	1.4
0.828043	1.20684	1.95144	68.9089	300.859	0.019215	17.3245	1.4
0.901144	1.22962	1.98142	65.7755	296.885	0.0185867	17.2928	1.4
0.97657	1.25307	2.01114	62.8044	292.99	0.0179831	17.2358	1.4
1.05416	1.27708	2.04057	59.9899	289.177	0.0174037	17.1555	1.4
1.13381	1.30159	2.06975	57.3207	285.441	0.016847	17.0526	1.4
1.21538	1.32652	2.09865	54.7918	281.785	0.0163127	16.9293	1.4
1.2988	1.35181	2.12702	52.4159	278.238	0.0158042	16.7938	1.4
1.38397	1.37739	2.15506	50.1672	274.774	0.0153169	16.6419	1.4
1.4708	1.40322	2.18158	48.1282	271.536	0.0148696	16.5063	1.4
1.55912	1.42929	2.20675	46.2694	268.497	0.0144571	16.3836	1.4
1.64885	1.45555	2.23193	44.481	265.49	0.0140557	16.2393	1.4
1.73998	1.48196	2.25706	42.7658	262.524	0.0136664	16.0767	1.4
1.83248	1.50846	2.28209	41.1228	259.602	0.0132893	15.8979	1.4
1.92633	1.535	2.30734	39.5296	256.688	0.0129195	15.6964	1.4
2.02152	1.56156	2.33259	37.9988	253.807	0.0125601	15.4789	1.4
2.11804	1.58809	2.3576	36.5419	250.988	0.0122142	15.2528	1.4
2.21589	1.61455	2.38225	35.1609	248.241	0.0118827	15.0215	1.4
2.31504	1.64093	2.40712	33.8215	245.501	0.0115576	14.7721	1.4
2.41548	1.66718	2.43156	32.556	242.841	0.011247	14.5213	1.4
2.51723	1.69329	2.4558	31.3489	240.234	0.0109475	14.2643	1.4
2.62026	1.71923	2.48013	30.1828	237.646	0.0106551	13.9947	1.4
2.72457	1.74496	2.50395	29.0846	235.142	0.0103767	13.7278	1.4
2.83021	1.77048	2.52886	27.9801	232.556	0.0100937	13.4269	1.4
2.93713	1.79575	2.5514	27.0178	230.242	0.00984447	13.1725	1.4
3.04524	1.8208	2.57338	26.1122	228.01	0.00960764	12.9229	1.4
3.15451	1.84562	2.59525	25.2424	225.814	0.00937795	12.6685	1.4
3.26497	1.87018	2.61728	24.3968	223.626	0.00915246	12.4037	1.4
3.37664	1.89445	2.63972	23.5655	221.422	0.00892859	12.1234	1.4
3.48955	1.91841	2.6627	22.7446	219.19	0.00870532	11.8253	1.4
3.60386	1.94202	2.68604	21.9412	216.95	0.00848456	11.5143	1.4
3.71944	1.96524	2.70889	21.1836	214.782	0.00827424	11.2092	1.4
3.83648	1.98812	2.73143	20.4628	212.668	0.00807216	10.9066	1.4
3.95472	2.01059	2.7532	19.7912	210.65	0.00788201	10.6161	1.4
4.07438	2.03271	2.77458	19.1538	208.689	0.00769984	10.3301	1.4
4.19506	2.0544	2.79572	18.5448	206.772	0.00752418	10.0447	1.4
4.31728	2.07574	2.81672	17.9602	204.888	0.00735399	9.75968	1.4
4.44071	2.09666	2.83719	17.4088	203.07	0.00719199	9.4819	1.4
4.56533	2.11716	2.85743	16.8811	201.293	0.0070356	9.20562	1.4
4.69124	2.13726	2.87735	16.3784	199.561	0.00688531	8.93307	1.4
4.81835	2.15693	2.89691	15.8999	197.878	0.00674102	8.6647	1.4
4.94678	2.17619	2.91631	15.44	196.225	0.00660116	8.39711	1.4
5.07638	2.19502	2.93528	15.004	194.626	0.00646745	8.13552	1.4
5.20708	2.21341	2.95399	14.5866	193.063	0.00633843	7.8763	1.4
5.33916	2.23137	2.97247	14.1865	191.535	0.00621376	7.61974	1.4
5.47235	2.24889	2.99059	13.8054	190.051	0.00609407	7.36771	1.4
5.60673	2.26597	3.00846	13.4403	188.601	0.00597851	7.11848	1.4
5.74242	2.28262	3.02608	13.0904	187.185	0.0058669	6.87225	1.4
5.87916	2.29881	3.04333	12.7569	185.81	0.00575976	6.63066	1.4
6.01704	2.31455	3.06032	12.4376	184.469	0.0056564	6.39237	1.4
6.15634	2.32986	3.07713	12.1299	183.153	0.00555608	6.15598	1.4
6.29667	2.34471	3.09359	11.8365	181.877	0.00545978	5.92432	1.4
6.43814	2.3591	3.10977	11.5555	180.632	0.00536686	5.69608	1.4
6.58068	2.37304	3.12563	11.287	179.423	0.0052775	5.47216	1.4
6.72438	2.38653	3.14122	11.0294	178.244	0.00519119	5.25147	1.4
6.86922	2.39956	3.15654	10.7826	177.095	0.00510795	5.03443	1.4
7.01515	2.41214	3.17156	10.5463	175.977	0.00502772	4.82121	1.4
7.16222	2.42428	3.18633	10.3193	174.886	0.00495017	4.61114	1.4
7.31035	2.43595	3.20079	10.1021	173.827	0.00487554	4.4052	1.4
7.45955	2.44718	3.21497	9.89392	172.796	0.00480356	4.20291	1.4
7.60979	2.45796	3.22885	9.69462	171.794	0.00473424	4.00457	1.4
7.76106	2.46829	3.24243	9.50375	170.821	0.00466748	3.81014	1.4
7.91354	2.47819	3.25581	9.31967	169.869	0.00460272	3.61827	1.4
8.06698	2.48764	3.26887	9.14365	168.946	0.00454046	3.43058	1.4
8.22142	2.49665	3.28163	8.97515	168.05	0.00448054	3.2469	1.4
8.37655	2.50521	3.29394	8.81568	167.192	0.00442353	3.06915	1.4
8.53305	2.51336	3.30617	8.66038	166.345	0.00436772	2.89241	1.4
8.69055	2.52107	3.31811	8.5116	165.523	0.004314	2.71951	1.4
8.84892	2.52836	3.32971	8.36962	164.73	0.00426247	2.55102	1.4
9.00827	2.53523	3.34104	8.23343	163.959	0.00421281	2.38611	1.4
9.16842	2.54168	3.352	8.10399	163.219	0.0041654	2.22617	1.4
9.32948	2.54772	3.36266	7.98019	162.502	0.00411985	2.07017	1.4
9.4916	2.55336	3.37311	7.86077	161.804	0.00407572	1.91688	1.4
9.6545	2.5586	3.38321	7.74723	161.133	0.00403358	1.7683	1.4
9.81821	2.56345	3.39296	7.63919	160.487	0.00399332	1.62427	1.4
9.9828	2.56791	3.40243	7.5359	159.864	0.00395468	1.48406	1.4
10.1482	2.572	3.41158	7.43753	159.265	0.00391774	1.34814	1.4
10.3143	2.57572	3.42036	7.34443	158.693	0.00388264	1.21719	1.4
10.4815	2.57908	3.42898	7.25434	158.135	0.00384856	1.08849	1.4
10.6493	2.58209	3.4372	7.16942	157.603	0.00381633	0.965043	1.4
10.8177	2.58475	3.44502	7.08972	157.101	0.00378598	0.847179	1.4
10.9869	2.58708	3.45251	7.01424	156.621	0.00375714	0.733784	1.4
11.1566	2.5891	3.45957	6.94383	156.17	0.00373017	0.626284	1.4
11.3271	2.59081	3.46626	6.87793	155.745	0.00370485	0.524106	1.4
11.4985	2.59222	3.4729	6.81314	155.325	0.00367988	0.422554	1.4
11.6702	2.59335	3.47884	6.75573	154.95	0.00365771	0.330919	1.4
11.8424	2.59422	3.48437	6.70277	154.602	0.0036372	0.245216	1.4
12.0153	2.59484	3.48941	6.65489	154.285	0.00361863	0.16669	1.4
12.1886	2.59523	3.49389	6.61265	154.005	0.0036022	0.0965099	1.4
12.3623	2.59543	3.49751	6.57866	153.778	0.00358897	0.0393517	1.4
12.5363	2.59548	3.5	6.55546	153.623	0.00357992	0	1.4
zone t="RRC BD"
0.26252	1.03507	1.63922	110.97	344.736	0.0270053	15.2196	1.4
0.276572	1.02931	1.64323	110.309	344.147	0.0268901	15.2363	1.4
0.292079	1.02298	1.64795	109.532	343.453	0.0267548	15.2461	1.4
0.308328	1.01641	1.65318	108.678	342.686	0.0266057	15.2487	1.4
0.325309	1.00958	1.6589	107.753	341.85	0.0264436	15.2446	1.4
0.343013	1.00252	1.66507	106.76	340.947	0.0262694	15.2343	1.4
0.361426	0.995225	1.67168	105.707	339.983	0.026084	15.2184	1.4
0.380531	0.987721	1.6787	104.599	338.96	0.0258883	15.1976	1.4
0.400312	0.980015	1.6861	103.441	337.884	0.0256834	15.1724	1.4
0.42075	0.972119	1.69385	102.24	336.759	0.02547	15.1434	1.4
0.441827	0.964047	1.70194	101	335.587	0.025249	15.111	1.4
0.463524	0.95581	1.71035	99.7258	334.372	0.0250211	15.0757	1.4
0.485823	0.94742	1.71906	98.4214	333.116	0.0247868	15.0377	1.4
0.508707	0.938888	1.72806	97.0899	331.822	0.0245469	14.9973	1.4
0.532159	0.930226	1.73734	95.7343	330.492	0.0243016	14.9547	1.4
0.556164	0.921441	1.74689	94.3567	329.126	0.0240513	14.9099	1.4
0.580709	0.912545	1.75671	92.9588	327.726	0.0237962	14.8628	1.4
0.605781	0.903545	1.76681	91.5417	326.29	0.0235365	14.8134	1.4
0.631368	0.894449	1.77718	90.1064	324.82	0.0232723	14.7613	1.4
0.657463	0.885264	1.78783	88.6531	323.315	0.0230036	14.7065	1.4
0.684057	0.875995	1.79878	87.1822	321.773	0.0227303	14.6484	1.4
0.711143	0.866649	1.81004	85.6933	320.193	0.0224524	14.5867	1.4
0.738717	0.857228	1.82162	84.1864	318.574	0.0221696	14.521	1.4
0.766776	0.847737	1.83354	82.661	316.914	0.021882	14.4508	1.4
0.7861	0.841256	1.84147	81.6609	315.814	0.0216925	14.4109	1.4
0.814747	0.83173	1.8539	80.1156	314.095	0.0213985	14.3329	1.4
0.834555	0.825197	1.86223	79.0953	312.947	0.0212035	14.2868	1.4
0.854504	0.818664	1.87071	78.0684	311.78	0.0210065	14.238	1.4
0.873623	0.812446	1.87794	77.2036	310.79	0.02084	14.2175	1.4
0.892024	0.806503	1.88445	76.4322	309.899	0.0206911	14.2111	1.4
0.910439	0.800598	1.89117	75.6447	308.984	0.0205386	14.1999	1.4
0.929007	0.794684	1.89816	74.8322	308.032	0.0203808	14.1829	1.4
0.947421	0.78886	1.90503	74.0417	307.099	0.0202268	14.1685	1.4
0.966199	0.782962	1.91238	73.206	306.104	0.0200634	14.1451	1.4
0.984903	0.777126	1.91966	72.3856	305.12	0.0199026	14.1232	1.4
1.00378	0.771276	1.92719	71.5478	304.107	0.0197377	14.097	1.4
1.023	0.765361	1.93512	70.6737	303.041	0.0195652	14.063	1.4
1.04182	0.759609	1.94263	69.8561	302.035	0.0194033	14.0377	1.4
1.05773	0.754774	1.94966	69.0994	301.096	0.0192529	13.9979	1.4
1.07701	0.74895	1.95774	68.239	300.02	0.0190813	13.9622	1.4
1.09273	0.744229	1.96454	67.5222	299.117	0.018938	13.9274	1.4
1.10901	0.739367	1.97196	66.7485	298.133	0.0187827	13.8812	1.4
1.12496	0.734627	1.97903	66.0193	297.199	0.0186359	13.8419	1.4
1.14077	0.729954	1.98601	65.3075	296.28	0.0184922	13.8041	1.4
1.15704	0.725167	1.99355	64.5463	295.289	0.018338	13.7555	1.4
1.17336	0.720393	2.00118	63.7848	294.29	0.0181832	13.7051	1.4
1.18888	0.715872	2.00798	63.1133	293.401	0.0180462	13.6701	1.4
1.2049	0.711229	2.01544	62.3849	292.43	0.0178972	13.6223	1.4
1.21956	0.706999	2.02261	61.6926	291.499	0.0177551	13.5694	1.4
1.23402	0.702845	2.02961	61.0234	290.592	0.0176173	13.5191	1.4
1.24776	0.698915	2.03589	60.4292	289.781	0.0174946	13.4817	1.4
1.26332	0.694481	2.04329	59.7366	288.828	0.0173512	13.4319	1.4
1.27678	0.690661	2.05004	59.1106	287.96	0.0172211	13.3793	1.4
1.29086	0.686678	2.05711	58.4624	287.054	0.017086	13.3243	1.4
1.30414	0.682938	2.06343	57.8894	286.247	0.0169662	13.2821	1.4
1.31655	0.679453	2.06943	57.3498	285.482	0.0168531	13.2402	1.4
1.32907	0.675952	2.07573	56.789	284.682	0.0167352	13.1914	1.4
1.34145	0.672498	2.08207	56.2293	283.877	0.0166173	13.1401	1.4
1.35357	0.669128	2.08833	55.6822	283.086	0.0165016	13.0886	1.4
1.36529	0.665877	2.09438	55.1586	282.322	0.0163906	13.0391	1.4
1.37591	0.662939	2.09944	54.7243	281.685	0.0162983	13.0056	1.4
1.38658	0.659996	2.10485	54.2642	281.007	0.0162003	12.9635	1.4
1.39675	0.657196	2.11018	53.814	280.339	0.0161042	12.9186	1.4
1.40653	0.654511	2.11538	53.378	279.688	0.0160109	12.8734	1.4
1.41062	0.653391	2.1182	53.1438	279.337	0.0159607	12.8375	1.4
1.41333	0.652646	2.12041	52.9602	279.061	0.0159213	12.8045	1.4
1.41856	0.651214	2.12361	52.6959	278.662	0.0158645	12.769	1.4
1.42585	0.649218	2.12725	52.3973	278.21	0.0158002	12.7416	1.4
1.43601	0.646442	2.13218	51.9951	277.598	0.0157135	12.7072	1.4
1.44915	0.642863	2.13847	51.4857	276.818	0.0156034	12.665	1.4
1.46525	0.638493	2.14607	50.8774	275.88	0.0154715	12.6166	1.4
1.48434	0.633335	2.15501	50.1714	274.781	0.0153178	12.5618	1.4
1.50657	0.627359	2.16543	49.3601	273.504	0.0151405	12.4982	1.4
1.53227	0.620491	2.17765	48.4255	272.014	0.0149352	12.4211	1.4
1.56191	0.612623	2.19216	47.3379	270.254	0.0146948	12.3222	1.4
1.59635	0.603544	2.20991	46.0413	268.118	0.0144062	12.1858	1.4
1.6375	0.592768	2.23299	44.4073	265.364	0.0140391	11.9753	1.4
1.69623	0.57747	2.27038	41.8832	260.965	0.0134644	11.5606	1.4
1.76244	0.560289	2.31188	39.2502	256.168	0.0128542	11.1081	1.4
1.82669	0.543683	2.34981	36.9894	251.863	0.0123209	10.7269	1.4
1.89868	0.525144	2.39348	34.5495	247	0.0117347	10.2716	1.4
1.93527	0.515739	2.41501	33.4079	244.64	0.0114564	10.0567	1.4
1.97459	0.505643	2.43886	32.1877	242.053	0.011156	9.80873	1.4
2.0113	0.496223	2.46045	31.1224	239.736	0.010891	9.59359	1.4
2.05659	0.484603	2.48774	29.8275	236.843	0.0105654	9.31329	1.4
2.09374	0.475073	2.50971	28.8253	234.541	0.0103105	9.09337	1.4
2.14589	0.461689	2.54098	27.4581	231.308	0.00995883	8.77533	1.4
2.1835	0.452029	2.56329	26.524	229.032	0.00971562	8.5521	1.4
2.24348	0.436603	2.59913	25.0915	225.427	0.00933786	8.19098	1.4
2.28162	0.426777	2.62176	24.2283	223.184	0.00910728	7.96545	1.4
2.35056	0.408974	2.66281	22.7406	219.179	0.00870422	7.55582	1.4
2.38934	0.398934	2.68579	21.9497	216.974	0.0084869	7.32858	1.4
2.42827	0.388833	2.70889	21.1835	214.782	0.00827421	7.10022	1.4
2.46848	0.378372	2.73266	20.4243	212.554	0.00806131	6.86706	1.4
2.50815	0.368024	2.75615	19.7019	210.378	0.00785661	6.63664	1.4
2.54774	0.357671	2.77944	19.012	208.247	0.00765909	6.41036	1.4
2.59918	0.344172	2.80975	18.1519	205.51	0.00740997	6.11626	1.4
2.63968	0.333503	2.83353	17.5062	203.394	0.0072207	5.88741	1.4
2.68037	0.322751	2.85737	16.8827	201.298	0.00703606	5.65885	1.4
2.74457	0.30571	2.89485	15.9495	198.054	0.00675603	5.30241	1.4
2.78628	0.294585	2.91915	15.3739	195.985	0.00658094	5.07276	1.4
2.82818	0.283369	2.94347	14.8199	193.94	0.00641066	4.84464	1.4
2.90743	0.262027	2.98931	13.832	190.155	0.00610243	4.41788	1.4
2.95055	0.250347	3.01413	13.3266	188.144	0.00594235	4.1892	1.4
2.99401	0.238523	3.0391	12.8379	186.146	0.00578584	3.96015	1.4
3.03772	0.22658	3.06408	12.3681	184.174	0.00563381	3.73321	1.4
3.09103	0.211941	3.0945	11.8205	181.807	0.00545451	3.4582	1.4
3.13598	0.199535	3.12003	11.381	179.849	0.00530886	3.22941	1.4
3.18129	0.18697	3.14567	10.9572	177.909	0.00516687	3.00134	1.4
3.22698	0.174238	3.17143	10.5482	175.986	0.00502839	2.77384	1.4
3.29966	0.153859	3.21223	9.93385	172.994	0.0048174	2.41698	1.4
3.34684	0.140544	3.23856	9.55767	171.097	0.00468638	2.18897	1.4
3.39449	0.127029	3.26508	9.19434	169.213	0.00455842	1.96098	1.4
3.44258	0.113318	3.29171	8.8444	167.347	0.00443382	1.73409	1.4
3.53888	0.0856511	3.34475	8.1894	163.708	0.00419671	1.28704	1.4
3.58882	0.0711898	3.37195	7.87388	161.881	0.00408057	1.06171	1.4
3.63941	0.0564594	3.39969	7.56562	160.044	0.00396581	0.83113	1.4
3.69047	0.0415153	3.42717	7.27314	158.251	0.00385568	0.607961	1.4
3.74217	0.0262972	3.4553	6.98636	156.443	0.00374647	0.377185	1.4
3.81598	0.0044146	3.49351	6.61616	154.028	0.00360357	0.0516255	1.4
3.8308	0	3.5	6.55546	153.623	0.00357992	0	1.4
zone t="LRC DE"
3.8308	0	3.5	6.55546	153.623	0.00357992	0	1.4
3.91785	0.0259548	3.5	6.55546	153.623	0.00357992	0	1.4
4.00491	0.0519096	3.5	6.55546	153.623	0.00357992	0	1.4
4.09196	0.0778644	3.5	6.55546	153.623	0.00357992	0	1.4
4.17902	0.103819	3.5	6.55546	153.623	0.00357992	0	1.4
4.26607	0.129774	3.5	6.55546	153.623	0.00357992	0	1.4
4.35313	0.155729	3.5	6.55546	153.623	0.00357992	0	1.4
4.44018	0.181683	3.5	6.55546	153.623	0.00357992	0	1.4
4.52724	0.207638	3.5	6.55546	153.623	0.00357992	0	1.4
4.61429	0.233593	3.5	6.55546	153.623	0.00357992	0	1.4
4.70135	0.259548	3.5	6.55546	153.623	0.00357992	0	1.4
4.7884	0.285503	3.5	6.55546	153.623	0.00357992	0	1.4
4.87546	0.311457	3.5	6.55546	153.623	0.00357992	0	1.4
4.96251	0.337412	3.5	6.55546	153.623	0.00357992	0	1.4
5.04957	0.363367	3.5	6.55546	153.623	0.00357992	0	1.4
5.13662	0.389322	3.5	6.55546	153.623	0.00357992	0	1.4
5.22368	0.415277	3.5	6.55546	153.623	0.00357992	0	1.4
5.31073	0.441231	3.5	6.55546	153.623	0.00357992	0	1.4
5.39779	0.467186	3.5	6.55546	153.623	0.00357992	0	1.4
5.48484	0.493141	3.5	6.55546	153.623	0.00357992	0	1.4
5.5719	0.519096	3.5	6.55546	153.623	0.00357992	0	1.4
5.65895	0.54505	3.5	6.55546	153.623	0.00357992	0	1.4
5.74601	0.571005	3.5	6.55546	153.623	0.00357992	0	1.4
5.83306	0.59696	3.5	6.55546	153.623	0.00357992	0	1.4
5.92012	0.622915	3.5	6.55546	153.623	0.00357992	0	1.4
6.00717	0.64887	3.5	6.55546	153.623	0.00357992	0	1.4
6.09423	0.674824	3.5	6.55546	153.623	0.00357992	0	1.4
6.18128	0.700779	3.5	6.55546	153.623	0.00357992	0	1.4
6.26834	0.726734	3.5	6.55546	153.623	0.00357992	0	1.4
6.35539	0.752689	3.5	6.55546	153.623	0.00357992	0	1.4
6.44245	0.778644	3.5	6.55546	153.623	0.00357992	0	1.4
6.5295	0.804598	3.5	6.55546	153.623	0.00357992	0	1.4
6.61656	0.830553	3.5	6.55546	153.623	0.00357992	0	1.4
6.70361	0.856508	3.5	6.55546	153.623	0.00357992	0	1.4
6.79067	0.882463	3.5	6.55546	153.623	0.00357992	0	1.4
6.87772	0.908417	3.5	6.55546	153.623	0.00357992	0	1.4
6.96478	0.934372	3.5	6.55546	153.623	0.00357992	0	1.4
7.05183	0.960327	3.5	6.55546	153.623	0.00357992	0	1.4
7.13889	0.986282	3.5	6.55546	153.623	0.00357992	0	1.4
7.22594	1.01224	3.5	6.55546	153.623	0.00357992	0	1.4
7.313	1.03819	3.5	6.55546	153.623	0.00357992	0	1.4
7.40005	1.06415	3.5	6.55546	153.623	0.00357992	0	1.4
7.48711	1.0901	3.5	6.55546	153.623	0.00357992	0	1.4
7.57416	1.11606	3.5	6.55546	153.623	0.00357992	0	1.4
7.66122	1.14201	3.5	6.55546	153.623	0.00357992	0	1.4
7.74827	1.16797	3.5	6.55546	153.623	0.00357992	0	1.4
7.83533	1.19392	3.5	6.55546	153.623	0.00357992	0	1.4
7.92238	1.21987	3.5	6.55546	153.623	0.00357992	0	1.4
8.00944	1.24583	3.5	6.55546	153.623	0.00357992	0	1.4
8.09649	1.27178	3.5	6.55546	153.623	0.00357992	0	1.4
8.18355	1.29774	3.5	6.55546	153.623	0.00357992	0	1.4
8.2706	1.32369	3.5	6.55546	153.623	0.00357992	0	1.4
8.35766	1.34965	3.5	6.55546	153.623	0.00357992	0	1.4
8.44471	1.3756	3.5	6.55546	153.623	0.00357992	0	1.4
8.53177	1.40156	3.5	6.55546	153.623	0.00357992	0	1.4
8.61882	1.42751	3.5	6.55546	153.623	0.00357992	0	1.4
8.70588	1.45347	3.5	6.55546	153.623	0.00357992	0	1.4
8.79293	1.47942	3.5	6.55546	153.623	0.00357992	0	1.4
8.87999	1.50538	3.5	6.55546	153.623	0.00357992	0	1.4
8.96704	1.53133	3.5	6.55546	153.623	0.00357992	0	1.4
9.0541	1.55729	3.5	6.55546	153.623	0.00357992	0	1.4
9.14115	1.58324	3.5	6.55546	153.623	0.00357992	0	1.4
9.22821	1.6092	3.5	6.55546	153.623	0.00357992	0	1.4
9.31526	1.63515	3.5	6.55546	153.623	0.00357992	0	1.4
9.40232	1.66111	3.5	6.55546	153.623	0.00357992	0	1.4
9.48937	1.68706	3.5	6.55546	153.623	0.00357992	0	1.4
9.57643	1.71302	3.5	6.55546	153.623	0.00357992	0	1.4
9.66348	1.73897	3.5	6.55546	153.623	0.00357992	0	1.4
9.75054	1.76493	3.5	6.55546	153.623	0.00357992	0	1.4
9.83759	1.79088	3.5	6.55546	153.623	0.00357992	0	1.4
9.92465	1.81683	3.5	6.55546	153.623	0.00357992	0	1.4
10.0117	1.84279	3.5	6.55546	153.623	0.00357992	0	1.4
10.0988	1.86874	3.5	6.55546	153.623	0.00357992	0	1.4
10.1858	1.8947	3.5	6.55546	153.623	0.00357992	0	1.4
10.2729	1.92065	3.5	6.55546	153.623	0.00357992	0	1.4
10.3599	1.94661	3.5	6.55546	153.623	0.00357992	0	1.4
10.447	1.97256	3.5	6.55546	153.623	0.00357992	0	1.4
10.534	1.99852	3.5	6.55546	153.623	0.00357992	0	1.4
10.6211	2.02447	3.5	6.55546	153.623	0.00357992	0	1.4
10.7081	2.05043	3.5	6.55546	153.623	0.00357992	0	1.4
10.7952	2.07638	3.5	6.55546	153.623	0.00357992	0	1.4
10.8823	2.10234	3.5	6.55546	153.623	0.00357992	0	1.4
10.9693	2.12829	3.5	6.55546	153.623	0.00357992	0	1.4
11.0564	2.15425	3.5	6.55546	153.623	0.00357992	0	1.4
11.1434	2.1802	3.5	6.55546	153.623	0.00357992	0	1.4
11.2305	2.20616	3.5	6.55546	153.623	0.00357992	0	1.4
11.3175	2.23211	3.5	6.55546	153.623	0.00357992	0	1.4
11.4046	2.25807	3.5	6.55546	153.623	0.00357992	0	1.4
11.4916	2.28402	3.5	6.55546	153.623	0.00357992	0	1.4
11.5787	2.30998	3.5	6.55546	153.623	0.00357992	0	1.4
11.6657	2.33593	3.5	6.55546	153.623	0.00357992	0	1.4
11.7528	2.36189	3.5	6.55546	153.623	0.00357992	0	1.4
11.8399	2.38784	3.5	6.55546	153.623	0.00357992	0	1.4
11.9269	2.41379	3.5	6.55546	153.623	0.00357992	0	1.4
12.014	2.43975	3.5	6.55546	153.623	0.00357992	0	1.4
12.101	2.4657	3.5	6.55546	153.623	0.00357992	0	1.4
12.1881	2.49166	3.5	6.55546	153.623	0.00357992	0	1.4
12.2751	2.51761	3.5	6.55546	153.623	0.00357992	0	1.4
12.3622	2.54357	3.5	6.55546	153.623	0.00357992	0	1.4
12.4492	2.56952	3.5	6.55546	153.623	0.00357992	0	1.4
12.5363	2.59548	3.5	6.55546	153.623	0.00357992	0	1.4
