VARIABLES = "X(in)","Y(in)","Z(in)","Pressure"
TITLE = "STT2001 Ouput"
text  x=5  y=93  t="Trimmed Nozzle Data"
zone t="All data" I = 73 J =100 K = 1
0.00	1.00	0.00	212.22
0.00	1.00	0.09	212.22
0.00	0.98	0.17	212.22
0.00	0.97	0.26	212.22
0.00	0.94	0.34	212.22
0.00	0.91	0.42	212.22
0.00	0.87	0.50	212.22
0.00	0.82	0.57	212.22
0.00	0.77	0.64	212.22
0.00	0.71	0.71	212.22
0.00	0.64	0.77	212.22
0.00	0.57	0.82	212.22
0.00	0.50	0.87	212.22
0.00	0.42	0.91	212.22
0.00	0.34	0.94	212.22
0.00	0.26	0.97	212.22
0.00	0.17	0.98	212.22
0.00	0.09	1.00	212.22
0.00	0.00	1.00	212.22
0.00	-0.09	1.00	212.22
0.00	-0.17	0.98	212.22
0.00	-0.26	0.97	212.22
0.00	-0.34	0.94	212.22
0.00	-0.42	0.91	212.22
0.00	-0.50	0.87	212.22
0.00	-0.57	0.82	212.22
0.00	-0.64	0.77	212.22
0.00	-0.71	0.71	212.22
0.00	-0.77	0.64	212.22
0.00	-0.82	0.57	212.22
0.00	-0.87	0.50	212.22
0.00	-0.91	0.42	212.22
0.00	-0.94	0.34	212.22
0.00	-0.97	0.26	212.22
0.00	-0.98	0.17	212.22
0.00	-1.00	0.09	212.22
0.00	-1.00	0.00	212.22
0.00	-1.00	-0.09	212.22
0.00	-0.98	-0.17	212.22
0.00	-0.97	-0.26	212.22
0.00	-0.94	-0.34	212.22
0.00	-0.91	-0.42	212.22
0.00	-0.87	-0.50	212.22
0.00	-0.82	-0.57	212.22
0.00	-0.77	-0.64	212.22
0.00	-0.71	-0.71	212.22
0.00	-0.64	-0.77	212.22
0.00	-0.57	-0.82	212.22
0.00	-0.50	-0.87	212.22
0.00	-0.42	-0.91	212.22
0.00	-0.34	-0.94	212.22
0.00	-0.26	-0.97	212.22
0.00	-0.17	-0.98	212.22
0.00	-0.09	-1.00	212.22
0.00	-0.00	-1.00	212.22
0.00	0.09	-1.00	212.22
0.00	0.17	-0.98	212.22
0.00	0.26	-0.97	212.22
0.00	0.34	-0.94	212.22
0.00	0.42	-0.91	212.22
0.00	0.50	-0.87	212.22
0.00	0.57	-0.82	212.22
0.00	0.64	-0.77	212.22
0.00	0.71	-0.71	212.22
0.00	0.77	-0.64	212.22
0.00	0.82	-0.57	212.22
0.00	0.87	-0.50	212.22
0.00	0.91	-0.42	212.22
0.00	0.94	-0.34	212.22
0.00	0.97	-0.26	212.22
0.00	0.98	-0.17	212.22
0.00	1.00	-0.09	212.22
0.00	1.00	0.00	212.22
0.09	1.00	0.00	187.25
0.09	1.00	0.09	187.25
0.09	0.99	0.17	187.25
0.09	0.97	0.26	187.25
0.09	0.94	0.34	187.25
0.09	0.91	0.42	187.25
0.09	0.87	0.50	187.25
0.09	0.82	0.58	187.25
0.09	0.77	0.65	187.25
0.09	0.71	0.71	187.25
0.09	0.65	0.77	187.25
0.09	0.58	0.82	187.25
0.09	0.50	0.87	187.25
0.09	0.42	0.91	187.25
0.09	0.34	0.94	187.25
0.09	0.26	0.97	187.25
0.09	0.17	0.99	187.25
0.09	0.09	1.00	187.25
0.09	0.00	1.00	187.25
0.09	-0.09	1.00	187.25
0.09	-0.17	0.99	187.25
0.09	-0.26	0.97	187.25
0.09	-0.34	0.94	187.25
0.09	-0.42	0.91	187.25
0.09	-0.50	0.87	187.25
0.09	-0.58	0.82	187.25
0.09	-0.65	0.77	187.25
0.09	-0.71	0.71	187.25
0.09	-0.77	0.65	187.25
0.09	-0.82	0.58	187.25
0.09	-0.87	0.50	187.25
0.09	-0.91	0.42	187.25
0.09	-0.94	0.34	187.25
0.09	-0.97	0.26	187.25
0.09	-0.99	0.17	187.25
0.09	-1.00	0.09	187.25
0.09	-1.00	0.00	187.25
0.09	-1.00	-0.09	187.25
0.09	-0.99	-0.17	187.25
0.09	-0.97	-0.26	187.25
0.09	-0.94	-0.34	187.25
0.09	-0.91	-0.42	187.25
0.09	-0.87	-0.50	187.25
0.09	-0.82	-0.58	187.25
0.09	-0.77	-0.65	187.25
0.09	-0.71	-0.71	187.25
0.09	-0.65	-0.77	187.25
0.09	-0.58	-0.82	187.25
0.09	-0.50	-0.87	187.25
0.09	-0.42	-0.91	187.25
0.09	-0.34	-0.94	187.25
0.09	-0.26	-0.97	187.25
0.09	-0.17	-0.99	187.25
0.09	-0.09	-1.00	187.25
0.09	-0.00	-1.00	187.25
0.09	0.09	-1.00	187.25
0.09	0.17	-0.99	187.25
0.09	0.26	-0.97	187.25
0.09	0.34	-0.94	187.25
0.09	0.42	-0.91	187.25
0.09	0.50	-0.87	187.25
0.09	0.58	-0.82	187.25
0.09	0.65	-0.77	187.25
0.09	0.71	-0.71	187.25
0.09	0.77	-0.65	187.25
0.09	0.82	-0.58	187.25
0.09	0.87	-0.50	187.25
0.09	0.91	-0.42	187.25
0.09	0.94	-0.34	187.25
0.09	0.97	-0.26	187.25
0.09	0.99	-0.17	187.25
0.09	1.00	-0.09	187.25
0.09	1.00	0.00	187.25
0.17	1.01	0.00	149.52
0.17	1.01	0.09	149.52
0.17	1.00	0.18	149.52
0.17	0.98	0.26	149.52
0.17	0.95	0.35	149.52
0.17	0.92	0.43	149.52
0.17	0.88	0.51	149.52
0.17	0.83	0.58	149.52
0.17	0.78	0.65	149.52
0.17	0.72	0.72	149.52
0.17	0.65	0.78	149.52
0.17	0.58	0.83	149.52
0.17	0.51	0.88	149.52
0.17	0.43	0.92	149.52
0.17	0.35	0.95	149.52
0.17	0.26	0.98	149.52
0.17	0.18	1.00	149.52
0.17	0.09	1.01	149.52
0.17	0.00	1.01	149.52
0.17	-0.09	1.01	149.52
0.17	-0.18	1.00	149.52
0.17	-0.26	0.98	149.52
0.17	-0.35	0.95	149.52
0.17	-0.43	0.92	149.52
0.17	-0.51	0.88	149.52
0.17	-0.58	0.83	149.52
0.17	-0.65	0.78	149.52
0.17	-0.72	0.72	149.52
0.17	-0.78	0.65	149.52
0.17	-0.83	0.58	149.52
0.17	-0.88	0.51	149.52
0.17	-0.92	0.43	149.52
0.17	-0.95	0.35	149.52
0.17	-0.98	0.26	149.52
0.17	-1.00	0.18	149.52
0.17	-1.01	0.09	149.52
0.17	-1.01	0.00	149.52
0.17	-1.01	-0.09	149.52
0.17	-1.00	-0.18	149.52
0.17	-0.98	-0.26	149.52
0.17	-0.95	-0.35	149.52
0.17	-0.92	-0.43	149.52
0.17	-0.88	-0.51	149.52
0.17	-0.83	-0.58	149.52
0.17	-0.78	-0.65	149.52
0.17	-0.72	-0.72	149.52
0.17	-0.65	-0.78	149.52
0.17	-0.58	-0.83	149.52
0.17	-0.51	-0.88	149.52
0.17	-0.43	-0.92	149.52
0.17	-0.35	-0.95	149.52
0.17	-0.26	-0.98	149.52
0.17	-0.18	-1.00	149.52
0.17	-0.09	-1.01	149.52
0.17	-0.00	-1.01	149.52
0.17	0.09	-1.01	149.52
0.17	0.18	-1.00	149.52
0.17	0.26	-0.98	149.52
0.17	0.35	-0.95	149.52
0.17	0.43	-0.92	149.52
0.17	0.51	-0.88	149.52
0.17	0.58	-0.83	149.52
0.17	0.65	-0.78	149.52
0.17	0.72	-0.72	149.52
0.17	0.78	-0.65	149.52
0.17	0.83	-0.58	149.52
0.17	0.88	-0.51	149.52
0.17	0.92	-0.43	149.52
0.17	0.95	-0.35	149.52
0.17	0.98	-0.26	149.52
0.17	1.00	-0.18	149.52
0.17	1.01	-0.09	149.52
0.17	1.01	0.00	149.52
0.26	1.03	0.00	113.55
0.26	1.03	0.09	113.55
0.26	1.02	0.18	113.55
0.26	1.00	0.27	113.55
0.26	0.97	0.35	113.55
0.26	0.94	0.44	113.55
0.26	0.89	0.52	113.55
0.26	0.85	0.59	113.55
0.26	0.79	0.66	113.55
0.26	0.73	0.73	113.55
0.26	0.66	0.79	113.55
0.26	0.59	0.85	113.55
0.26	0.52	0.89	113.55
0.26	0.44	0.94	113.55
0.26	0.35	0.97	113.55
0.26	0.27	1.00	113.55
0.26	0.18	1.02	113.55
0.26	0.09	1.03	113.55
0.26	0.00	1.03	113.55
0.26	-0.09	1.03	113.55
0.26	-0.18	1.02	113.55
0.26	-0.27	1.00	113.55
0.26	-0.35	0.97	113.55
0.26	-0.44	0.94	113.55
0.26	-0.52	0.89	113.55
0.26	-0.59	0.85	113.55
0.26	-0.66	0.79	113.55
0.26	-0.73	0.73	113.55
0.26	-0.79	0.66	113.55
0.26	-0.85	0.59	113.55
0.26	-0.89	0.52	113.55
0.26	-0.94	0.44	113.55
0.26	-0.97	0.35	113.55
0.26	-1.00	0.27	113.55
0.26	-1.02	0.18	113.55
0.26	-1.03	0.09	113.55
0.26	-1.03	0.00	113.55
0.26	-1.03	-0.09	113.55
0.26	-1.02	-0.18	113.55
0.26	-1.00	-0.27	113.55
0.26	-0.97	-0.35	113.55
0.26	-0.94	-0.44	113.55
0.26	-0.89	-0.52	113.55
0.26	-0.85	-0.59	113.55
0.26	-0.79	-0.66	113.55
0.26	-0.73	-0.73	113.55
0.26	-0.66	-0.79	113.55
0.26	-0.59	-0.85	113.55
0.26	-0.52	-0.89	113.55
0.26	-0.44	-0.94	113.55
0.26	-0.35	-0.97	113.55
0.26	-0.27	-1.00	113.55
0.26	-0.18	-1.02	113.55
0.26	-0.09	-1.03	113.55
0.26	-0.00	-1.03	113.55
0.26	0.09	-1.03	113.55
0.26	0.18	-1.02	113.55
0.26	0.27	-1.00	113.55
0.26	0.35	-0.97	113.55
0.26	0.44	-0.94	113.55
0.26	0.52	-0.89	113.55
0.26	0.59	-0.85	113.55
0.26	0.66	-0.79	113.55
0.26	0.73	-0.73	113.55
0.26	0.79	-0.66	113.55
0.26	0.85	-0.59	113.55
0.26	0.89	-0.52	113.55
0.26	0.94	-0.44	113.55
0.26	0.97	-0.35	113.55
0.26	1.00	-0.27	113.55
0.26	1.02	-0.18	113.55
0.26	1.03	-0.09	113.55
0.26	1.03	0.00	113.55
0.34	1.06	0.00	99.63
0.34	1.05	0.09	99.63
0.34	1.04	0.18	99.63
0.34	1.02	0.27	99.63
0.34	0.99	0.36	99.63
0.34	0.96	0.45	99.63
0.34	0.92	0.53	99.63
0.34	0.87	0.61	99.63
0.34	0.81	0.68	99.63
0.34	0.75	0.75	99.63
0.34	0.68	0.81	99.63
0.34	0.61	0.87	99.63
0.34	0.53	0.92	99.63
0.34	0.45	0.96	99.63
0.34	0.36	0.99	99.63
0.34	0.27	1.02	99.63
0.34	0.18	1.04	99.63
0.34	0.09	1.05	99.63
0.34	0.00	1.06	99.63
0.34	-0.09	1.05	99.63
0.34	-0.18	1.04	99.63
0.34	-0.27	1.02	99.63
0.34	-0.36	0.99	99.63
0.34	-0.45	0.96	99.63
0.34	-0.53	0.92	99.63
0.34	-0.61	0.87	99.63
0.34	-0.68	0.81	99.63
0.34	-0.75	0.75	99.63
0.34	-0.81	0.68	99.63
0.34	-0.87	0.61	99.63
0.34	-0.92	0.53	99.63
0.34	-0.96	0.45	99.63
0.34	-0.99	0.36	99.63
0.34	-1.02	0.27	99.63
0.34	-1.04	0.18	99.63
0.34	-1.05	0.09	99.63
0.34	-1.06	0.00	99.63
0.34	-1.05	-0.09	99.63
0.34	-1.04	-0.18	99.63
0.34	-1.02	-0.27	99.63
0.34	-0.99	-0.36	99.63
0.34	-0.96	-0.45	99.63
0.34	-0.92	-0.53	99.63
0.34	-0.87	-0.61	99.63
0.34	-0.81	-0.68	99.63
0.34	-0.75	-0.75	99.63
0.34	-0.68	-0.81	99.63
0.34	-0.61	-0.87	99.63
0.34	-0.53	-0.92	99.63
0.34	-0.45	-0.96	99.63
0.34	-0.36	-0.99	99.63
0.34	-0.27	-1.02	99.63
0.34	-0.18	-1.04	99.63
0.34	-0.09	-1.05	99.63
0.34	-0.00	-1.06	99.63
0.34	0.09	-1.05	99.63
0.34	0.18	-1.04	99.63
0.34	0.27	-1.02	99.63
0.34	0.36	-0.99	99.63
0.34	0.45	-0.96	99.63
0.34	0.53	-0.92	99.63
0.34	0.61	-0.87	99.63
0.34	0.68	-0.81	99.63
0.34	0.75	-0.75	99.63
0.34	0.81	-0.68	99.63
0.34	0.87	-0.61	99.63
0.34	0.92	-0.53	99.63
0.34	0.96	-0.45	99.63
0.34	0.99	-0.36	99.63
0.34	1.02	-0.27	99.63
0.34	1.04	-0.18	99.63
0.34	1.05	-0.09	99.63
0.34	1.06	0.00	99.63
0.43	1.08	0.00	92.86
0.43	1.08	0.09	92.86
0.43	1.07	0.19	92.86
0.43	1.05	0.28	92.86
0.43	1.02	0.37	92.86
0.43	0.98	0.46	92.86
0.43	0.94	0.54	92.86
0.43	0.89	0.62	92.86
0.43	0.83	0.70	92.86
0.43	0.77	0.77	92.86
0.43	0.70	0.83	92.86
0.43	0.62	0.89	92.86
0.43	0.54	0.94	92.86
0.43	0.46	0.98	92.86
0.43	0.37	1.02	92.86
0.43	0.28	1.05	92.86
0.43	0.19	1.07	92.86
0.43	0.09	1.08	92.86
0.43	0.00	1.08	92.86
0.43	-0.09	1.08	92.86
0.43	-0.19	1.07	92.86
0.43	-0.28	1.05	92.86
0.43	-0.37	1.02	92.86
0.43	-0.46	0.98	92.86
0.43	-0.54	0.94	92.86
0.43	-0.62	0.89	92.86
0.43	-0.70	0.83	92.86
0.43	-0.77	0.77	92.86
0.43	-0.83	0.70	92.86
0.43	-0.89	0.62	92.86
0.43	-0.94	0.54	92.86
0.43	-0.98	0.46	92.86
0.43	-1.02	0.37	92.86
0.43	-1.05	0.28	92.86
0.43	-1.07	0.19	92.86
0.43	-1.08	0.09	92.86
0.43	-1.08	0.00	92.86
0.43	-1.08	-0.09	92.86
0.43	-1.07	-0.19	92.86
0.43	-1.05	-0.28	92.86
0.43	-1.02	-0.37	92.86
0.43	-0.98	-0.46	92.86
0.43	-0.94	-0.54	92.86
0.43	-0.89	-0.62	92.86
0.43	-0.83	-0.70	92.86
0.43	-0.77	-0.77	92.86
0.43	-0.70	-0.83	92.86
0.43	-0.62	-0.89	92.86
0.43	-0.54	-0.94	92.86
0.43	-0.46	-0.98	92.86
0.43	-0.37	-1.02	92.86
0.43	-0.28	-1.05	92.86
0.43	-0.19	-1.07	92.86
0.43	-0.09	-1.08	92.86
0.43	-0.00	-1.08	92.86
0.43	0.09	-1.08	92.86
0.43	0.19	-1.07	92.86
0.43	0.28	-1.05	92.86
0.43	0.37	-1.02	92.86
0.43	0.46	-0.98	92.86
0.43	0.54	-0.94	92.86
0.43	0.62	-0.89	92.86
0.43	0.70	-0.83	92.86
0.43	0.77	-0.77	92.86
0.43	0.83	-0.70	92.86
0.43	0.89	-0.62	92.86
0.43	0.94	-0.54	92.86
0.43	0.98	-0.46	92.86
0.43	1.02	-0.37	92.86
0.43	1.05	-0.28	92.86
0.43	1.07	-0.19	92.86
0.43	1.08	-0.09	92.86
0.43	1.08	0.00	92.86
0.51	1.11	0.00	86.56
0.51	1.10	0.10	86.56
0.51	1.09	0.19	86.56
0.51	1.07	0.29	86.56
0.51	1.04	0.38	86.56
0.51	1.00	0.47	86.56
0.51	0.96	0.55	86.56
0.51	0.91	0.64	86.56
0.51	0.85	0.71	86.56
0.51	0.78	0.78	86.56
0.51	0.71	0.85	86.56
0.51	0.64	0.91	86.56
0.51	0.55	0.96	86.56
0.51	0.47	1.00	86.56
0.51	0.38	1.04	86.56
0.51	0.29	1.07	86.56
0.51	0.19	1.09	86.56
0.51	0.10	1.10	86.56
0.51	0.00	1.11	86.56
0.51	-0.10	1.10	86.56
0.51	-0.19	1.09	86.56
0.51	-0.29	1.07	86.56
0.51	-0.38	1.04	86.56
0.51	-0.47	1.00	86.56
0.51	-0.55	0.96	86.56
0.51	-0.64	0.91	86.56
0.51	-0.71	0.85	86.56
0.51	-0.78	0.78	86.56
0.51	-0.85	0.71	86.56
0.51	-0.91	0.64	86.56
0.51	-0.96	0.55	86.56
0.51	-1.00	0.47	86.56
0.51	-1.04	0.38	86.56
0.51	-1.07	0.29	86.56
0.51	-1.09	0.19	86.56
0.51	-1.10	0.10	86.56
0.51	-1.11	0.00	86.56
0.51	-1.10	-0.10	86.56
0.51	-1.09	-0.19	86.56
0.51	-1.07	-0.29	86.56
0.51	-1.04	-0.38	86.56
0.51	-1.00	-0.47	86.56
0.51	-0.96	-0.55	86.56
0.51	-0.91	-0.64	86.56
0.51	-0.85	-0.71	86.56
0.51	-0.78	-0.78	86.56
0.51	-0.71	-0.85	86.56
0.51	-0.64	-0.91	86.56
0.51	-0.55	-0.96	86.56
0.51	-0.47	-1.00	86.56
0.51	-0.38	-1.04	86.56
0.51	-0.29	-1.07	86.56
0.51	-0.19	-1.09	86.56
0.51	-0.10	-1.10	86.56
0.51	-0.00	-1.11	86.56
0.51	0.10	-1.10	86.56
0.51	0.19	-1.09	86.56
0.51	0.29	-1.07	86.56
0.51	0.38	-1.04	86.56
0.51	0.47	-1.00	86.56
0.51	0.55	-0.96	86.56
0.51	0.64	-0.91	86.56
0.51	0.71	-0.85	86.56
0.51	0.78	-0.78	86.56
0.51	0.85	-0.71	86.56
0.51	0.91	-0.64	86.56
0.51	0.96	-0.55	86.56
0.51	1.00	-0.47	86.56
0.51	1.04	-0.38	86.56
0.51	1.07	-0.29	86.56
0.51	1.09	-0.19	86.56
0.51	1.10	-0.10	86.56
0.51	1.11	0.00	86.56
0.60	1.13	0.00	80.96
0.60	1.13	0.10	80.96
0.60	1.12	0.20	80.96
0.60	1.10	0.29	80.96
0.60	1.07	0.39	80.96
0.60	1.03	0.48	80.96
0.60	0.98	0.57	80.96
0.60	0.93	0.65	80.96
0.60	0.87	0.73	80.96
0.60	0.80	0.80	80.96
0.60	0.73	0.87	80.96
0.60	0.65	0.93	80.96
0.60	0.57	0.98	80.96
0.60	0.48	1.03	80.96
0.60	0.39	1.07	80.96
0.60	0.29	1.10	80.96
0.60	0.20	1.12	80.96
0.60	0.10	1.13	80.96
0.60	0.00	1.13	80.96
0.60	-0.10	1.13	80.96
0.60	-0.20	1.12	80.96
0.60	-0.29	1.10	80.96
0.60	-0.39	1.07	80.96
0.60	-0.48	1.03	80.96
0.60	-0.57	0.98	80.96
0.60	-0.65	0.93	80.96
0.60	-0.73	0.87	80.96
0.60	-0.80	0.80	80.96
0.60	-0.87	0.73	80.96
0.60	-0.93	0.65	80.96
0.60	-0.98	0.57	80.96
0.60	-1.03	0.48	80.96
0.60	-1.07	0.39	80.96
0.60	-1.10	0.29	80.96
0.60	-1.12	0.20	80.96
0.60	-1.13	0.10	80.96
0.60	-1.13	0.00	80.96
0.60	-1.13	-0.10	80.96
0.60	-1.12	-0.20	80.96
0.60	-1.10	-0.29	80.96
0.60	-1.07	-0.39	80.96
0.60	-1.03	-0.48	80.96
0.60	-0.98	-0.57	80.96
0.60	-0.93	-0.65	80.96
0.60	-0.87	-0.73	80.96
0.60	-0.80	-0.80	80.96
0.60	-0.73	-0.87	80.96
0.60	-0.65	-0.93	80.96
0.60	-0.57	-0.98	80.96
0.60	-0.48	-1.03	80.96
0.60	-0.39	-1.07	80.96
0.60	-0.29	-1.10	80.96
0.60	-0.20	-1.12	80.96
0.60	-0.10	-1.13	80.96
0.60	-0.00	-1.13	80.96
0.60	0.10	-1.13	80.96
0.60	0.20	-1.12	80.96
0.60	0.29	-1.10	80.96
0.60	0.39	-1.07	80.96
0.60	0.48	-1.03	80.96
0.60	0.57	-0.98	80.96
0.60	0.65	-0.93	80.96
0.60	0.73	-0.87	80.96
0.60	0.80	-0.80	80.96
0.60	0.87	-0.73	80.96
0.60	0.93	-0.65	80.96
0.60	0.98	-0.57	80.96
0.60	1.03	-0.48	80.96
0.60	1.07	-0.39	80.96
0.60	1.10	-0.29	80.96
0.60	1.12	-0.20	80.96
0.60	1.13	-0.10	80.96
0.60	1.13	0.00	80.96
0.68	1.16	0.00	76.07
0.68	1.16	0.10	76.07
0.68	1.14	0.20	76.07
0.68	1.12	0.30	76.07
0.68	1.09	0.40	76.07
0.68	1.05	0.49	76.07
0.68	1.01	0.58	76.07
0.68	0.95	0.67	76.07
0.68	0.89	0.75	76.07
0.68	0.82	0.82	76.07
0.68	0.75	0.89	76.07
0.68	0.67	0.95	76.07
0.68	0.58	1.01	76.07
0.68	0.49	1.05	76.07
0.68	0.40	1.09	76.07
0.68	0.30	1.12	76.07
0.68	0.20	1.14	76.07
0.68	0.10	1.16	76.07
0.68	0.00	1.16	76.07
0.68	-0.10	1.16	76.07
0.68	-0.20	1.14	76.07
0.68	-0.30	1.12	76.07
0.68	-0.40	1.09	76.07
0.68	-0.49	1.05	76.07
0.68	-0.58	1.01	76.07
0.68	-0.67	0.95	76.07
0.68	-0.75	0.89	76.07
0.68	-0.82	0.82	76.07
0.68	-0.89	0.75	76.07
0.68	-0.95	0.67	76.07
0.68	-1.01	0.58	76.07
0.68	-1.05	0.49	76.07
0.68	-1.09	0.40	76.07
0.68	-1.12	0.30	76.07
0.68	-1.14	0.20	76.07
0.68	-1.16	0.10	76.07
0.68	-1.16	0.00	76.07
0.68	-1.16	-0.10	76.07
0.68	-1.14	-0.20	76.07
0.68	-1.12	-0.30	76.07
0.68	-1.09	-0.40	76.07
0.68	-1.05	-0.49	76.07
0.68	-1.01	-0.58	76.07
0.68	-0.95	-0.67	76.07
0.68	-0.89	-0.75	76.07
0.68	-0.82	-0.82	76.07
0.68	-0.75	-0.89	76.07
0.68	-0.67	-0.95	76.07
0.68	-0.58	-1.01	76.07
0.68	-0.49	-1.05	76.07
0.68	-0.40	-1.09	76.07
0.68	-0.30	-1.12	76.07
0.68	-0.20	-1.14	76.07
0.68	-0.10	-1.16	76.07
0.68	-0.00	-1.16	76.07
0.68	0.10	-1.16	76.07
0.68	0.20	-1.14	76.07
0.68	0.30	-1.12	76.07
0.68	0.40	-1.09	76.07
0.68	0.49	-1.05	76.07
0.68	0.58	-1.01	76.07
0.68	0.67	-0.95	76.07
0.68	0.75	-0.89	76.07
0.68	0.82	-0.82	76.07
0.68	0.89	-0.75	76.07
0.68	0.95	-0.67	76.07
0.68	1.01	-0.58	76.07
0.68	1.05	-0.49	76.07
0.68	1.09	-0.40	76.07
0.68	1.12	-0.30	76.07
0.68	1.14	-0.20	76.07
0.68	1.16	-0.10	76.07
0.68	1.16	0.00	76.07
0.77	1.19	0.00	71.72
0.77	1.18	0.10	71.72
0.77	1.17	0.21	71.72
0.77	1.15	0.31	71.72
0.77	1.12	0.41	71.72
0.77	1.08	0.50	71.72
0.77	1.03	0.59	71.72
0.77	0.97	0.68	71.72
0.77	0.91	0.76	71.72
0.77	0.84	0.84	71.72
0.77	0.76	0.91	71.72
0.77	0.68	0.97	71.72
0.77	0.59	1.03	71.72
0.77	0.50	1.08	71.72
0.77	0.41	1.12	71.72
0.77	0.31	1.15	71.72
0.77	0.21	1.17	71.72
0.77	0.10	1.18	71.72
0.77	0.00	1.19	71.72
0.77	-0.10	1.18	71.72
0.77	-0.21	1.17	71.72
0.77	-0.31	1.15	71.72
0.77	-0.41	1.12	71.72
0.77	-0.50	1.08	71.72
0.77	-0.59	1.03	71.72
0.77	-0.68	0.97	71.72
0.77	-0.76	0.91	71.72
0.77	-0.84	0.84	71.72
0.77	-0.91	0.76	71.72
0.77	-0.97	0.68	71.72
0.77	-1.03	0.59	71.72
0.77	-1.08	0.50	71.72
0.77	-1.12	0.41	71.72
0.77	-1.15	0.31	71.72
0.77	-1.17	0.21	71.72
0.77	-1.18	0.10	71.72
0.77	-1.19	0.00	71.72
0.77	-1.18	-0.10	71.72
0.77	-1.17	-0.21	71.72
0.77	-1.15	-0.31	71.72
0.77	-1.12	-0.41	71.72
0.77	-1.08	-0.50	71.72
0.77	-1.03	-0.59	71.72
0.77	-0.97	-0.68	71.72
0.77	-0.91	-0.76	71.72
0.77	-0.84	-0.84	71.72
0.77	-0.76	-0.91	71.72
0.77	-0.68	-0.97	71.72
0.77	-0.59	-1.03	71.72
0.77	-0.50	-1.08	71.72
0.77	-0.41	-1.12	71.72
0.77	-0.31	-1.15	71.72
0.77	-0.21	-1.17	71.72
0.77	-0.10	-1.18	71.72
0.77	-0.00	-1.19	71.72
0.77	0.10	-1.18	71.72
0.77	0.21	-1.17	71.72
0.77	0.31	-1.15	71.72
0.77	0.41	-1.12	71.72
0.77	0.50	-1.08	71.72
0.77	0.59	-1.03	71.72
0.77	0.68	-0.97	71.72
0.77	0.76	-0.91	71.72
0.77	0.84	-0.84	71.72
0.77	0.91	-0.76	71.72
0.77	0.97	-0.68	71.72
0.77	1.03	-0.59	71.72
0.77	1.08	-0.50	71.72
0.77	1.12	-0.41	71.72
0.77	1.15	-0.31	71.72
0.77	1.17	-0.21	71.72
0.77	1.18	-0.10	71.72
0.77	1.19	0.00	71.72
0.85	1.21	0.00	67.81
0.85	1.21	0.11	67.81
0.85	1.20	0.21	67.81
0.85	1.17	0.31	67.81
0.85	1.14	0.42	67.81
0.85	1.10	0.51	67.81
0.85	1.05	0.61	67.81
0.85	0.99	0.70	67.81
0.85	0.93	0.78	67.81
0.85	0.86	0.86	67.81
0.85	0.78	0.93	67.81
0.85	0.70	0.99	67.81
0.85	0.61	1.05	67.81
0.85	0.51	1.10	67.81
0.85	0.42	1.14	67.81
0.85	0.31	1.17	67.81
0.85	0.21	1.20	67.81
0.85	0.11	1.21	67.81
0.85	0.00	1.21	67.81
0.85	-0.11	1.21	67.81
0.85	-0.21	1.20	67.81
0.85	-0.31	1.17	67.81
0.85	-0.42	1.14	67.81
0.85	-0.51	1.10	67.81
0.85	-0.61	1.05	67.81
0.85	-0.70	0.99	67.81
0.85	-0.78	0.93	67.81
0.85	-0.86	0.86	67.81
0.85	-0.93	0.78	67.81
0.85	-0.99	0.70	67.81
0.85	-1.05	0.61	67.81
0.85	-1.10	0.51	67.81
0.85	-1.14	0.42	67.81
0.85	-1.17	0.31	67.81
0.85	-1.20	0.21	67.81
0.85	-1.21	0.11	67.81
0.85	-1.21	0.00	67.81
0.85	-1.21	-0.11	67.81
0.85	-1.20	-0.21	67.81
0.85	-1.17	-0.31	67.81
0.85	-1.14	-0.42	67.81
0.85	-1.10	-0.51	67.81
0.85	-1.05	-0.61	67.81
0.85	-0.99	-0.70	67.81
0.85	-0.93	-0.78	67.81
0.85	-0.86	-0.86	67.81
0.85	-0.78	-0.93	67.81
0.85	-0.70	-0.99	67.81
0.85	-0.61	-1.05	67.81
0.85	-0.51	-1.10	67.81
0.85	-0.42	-1.14	67.81
0.85	-0.31	-1.17	67.81
0.85	-0.21	-1.20	67.81
0.85	-0.11	-1.21	67.81
0.85	-0.00	-1.21	67.81
0.85	0.11	-1.21	67.81
0.85	0.21	-1.20	67.81
0.85	0.31	-1.17	67.81
0.85	0.42	-1.14	67.81
0.85	0.51	-1.10	67.81
0.85	0.61	-1.05	67.81
0.85	0.70	-0.99	67.81
0.85	0.78	-0.93	67.81
0.85	0.86	-0.86	67.81
0.85	0.93	-0.78	67.81
0.85	0.99	-0.70	67.81
0.85	1.05	-0.61	67.81
0.85	1.10	-0.51	67.81
0.85	1.14	-0.42	67.81
0.85	1.17	-0.31	67.81
0.85	1.20	-0.21	67.81
0.85	1.21	-0.11	67.81
0.85	1.21	0.00	67.81
0.94	1.24	0.00	64.29
0.94	1.24	0.11	64.29
0.94	1.22	0.22	64.29
0.94	1.20	0.32	64.29
0.94	1.17	0.42	64.29
0.94	1.12	0.52	64.29
0.94	1.07	0.62	64.29
0.94	1.02	0.71	64.29
0.94	0.95	0.80	64.29
0.94	0.88	0.88	64.29
0.94	0.80	0.95	64.29
0.94	0.71	1.02	64.29
0.94	0.62	1.07	64.29
0.94	0.52	1.12	64.29
0.94	0.42	1.17	64.29
0.94	0.32	1.20	64.29
0.94	0.22	1.22	64.29
0.94	0.11	1.24	64.29
0.94	0.00	1.24	64.29
0.94	-0.11	1.24	64.29
0.94	-0.22	1.22	64.29
0.94	-0.32	1.20	64.29
0.94	-0.42	1.17	64.29
0.94	-0.52	1.12	64.29
0.94	-0.62	1.07	64.29
0.94	-0.71	1.02	64.29
0.94	-0.80	0.95	64.29
0.94	-0.88	0.88	64.29
0.94	-0.95	0.80	64.29
0.94	-1.02	0.71	64.29
0.94	-1.07	0.62	64.29
0.94	-1.12	0.52	64.29
0.94	-1.17	0.42	64.29
0.94	-1.20	0.32	64.29
0.94	-1.22	0.22	64.29
0.94	-1.24	0.11	64.29
0.94	-1.24	0.00	64.29
0.94	-1.24	-0.11	64.29
0.94	-1.22	-0.22	64.29
0.94	-1.20	-0.32	64.29
0.94	-1.17	-0.42	64.29
0.94	-1.12	-0.52	64.29
0.94	-1.07	-0.62	64.29
0.94	-1.02	-0.71	64.29
0.94	-0.95	-0.80	64.29
0.94	-0.88	-0.88	64.29
0.94	-0.80	-0.95	64.29
0.94	-0.71	-1.02	64.29
0.94	-0.62	-1.07	64.29
0.94	-0.52	-1.12	64.29
0.94	-0.42	-1.17	64.29
0.94	-0.32	-1.20	64.29
0.94	-0.22	-1.22	64.29
0.94	-0.11	-1.24	64.29
0.94	-0.00	-1.24	64.29
0.94	0.11	-1.24	64.29
0.94	0.22	-1.22	64.29
0.94	0.32	-1.20	64.29
0.94	0.42	-1.17	64.29
0.94	0.52	-1.12	64.29
0.94	0.62	-1.07	64.29
0.94	0.71	-1.02	64.29
0.94	0.80	-0.95	64.29
0.94	0.88	-0.88	64.29
0.94	0.95	-0.80	64.29
0.94	1.02	-0.71	64.29
0.94	1.07	-0.62	64.29
0.94	1.12	-0.52	64.29
0.94	1.17	-0.42	64.29
0.94	1.20	-0.32	64.29
0.94	1.22	-0.22	64.29
0.94	1.24	-0.11	64.29
0.94	1.24	0.00	64.29
1.02	1.27	0.00	61.08
1.02	1.26	0.11	61.08
1.02	1.25	0.22	61.08
1.02	1.22	0.33	61.08
1.02	1.19	0.43	61.08
1.02	1.15	0.54	61.08
1.02	1.10	0.63	61.08
1.02	1.04	0.73	61.08
1.02	0.97	0.81	61.08
1.02	0.90	0.90	61.08
1.02	0.81	0.97	61.08
1.02	0.73	1.04	61.08
1.02	0.63	1.10	61.08
1.02	0.54	1.15	61.08
1.02	0.43	1.19	61.08
1.02	0.33	1.22	61.08
1.02	0.22	1.25	61.08
1.02	0.11	1.26	61.08
1.02	0.00	1.27	61.08
1.02	-0.11	1.26	61.08
1.02	-0.22	1.25	61.08
1.02	-0.33	1.22	61.08
1.02	-0.43	1.19	61.08
1.02	-0.54	1.15	61.08
1.02	-0.63	1.10	61.08
1.02	-0.73	1.04	61.08
1.02	-0.81	0.97	61.08
1.02	-0.90	0.90	61.08
1.02	-0.97	0.81	61.08
1.02	-1.04	0.73	61.08
1.02	-1.10	0.63	61.08
1.02	-1.15	0.54	61.08
1.02	-1.19	0.43	61.08
1.02	-1.22	0.33	61.08
1.02	-1.25	0.22	61.08
1.02	-1.26	0.11	61.08
1.02	-1.27	0.00	61.08
1.02	-1.26	-0.11	61.08
1.02	-1.25	-0.22	61.08
1.02	-1.22	-0.33	61.08
1.02	-1.19	-0.43	61.08
1.02	-1.15	-0.54	61.08
1.02	-1.10	-0.63	61.08
1.02	-1.04	-0.73	61.08
1.02	-0.97	-0.81	61.08
1.02	-0.90	-0.90	61.08
1.02	-0.81	-0.97	61.08
1.02	-0.73	-1.04	61.08
1.02	-0.63	-1.10	61.08
1.02	-0.54	-1.15	61.08
1.02	-0.43	-1.19	61.08
1.02	-0.33	-1.22	61.08
1.02	-0.22	-1.25	61.08
1.02	-0.11	-1.26	61.08
1.02	-0.00	-1.27	61.08
1.02	0.11	-1.26	61.08
1.02	0.22	-1.25	61.08
1.02	0.33	-1.22	61.08
1.02	0.43	-1.19	61.08
1.02	0.54	-1.15	61.08
1.02	0.63	-1.10	61.08
1.02	0.73	-1.04	61.08
1.02	0.81	-0.97	61.08
1.02	0.90	-0.90	61.08
1.02	0.97	-0.81	61.08
1.02	1.04	-0.73	61.08
1.02	1.10	-0.63	61.08
1.02	1.15	-0.54	61.08
1.02	1.19	-0.43	61.08
1.02	1.22	-0.33	61.08
1.02	1.25	-0.22	61.08
1.02	1.26	-0.11	61.08
1.02	1.27	0.00	61.08
1.11	1.29	0.00	58.14
1.11	1.29	0.11	58.14
1.11	1.27	0.22	58.14
1.11	1.25	0.33	58.14
1.11	1.22	0.44	58.14
1.11	1.17	0.55	58.14
1.11	1.12	0.65	58.14
1.11	1.06	0.74	58.14
1.11	0.99	0.83	58.14
1.11	0.91	0.91	58.14
1.11	0.83	0.99	58.14
1.11	0.74	1.06	58.14
1.11	0.65	1.12	58.14
1.11	0.55	1.17	58.14
1.11	0.44	1.22	58.14
1.11	0.33	1.25	58.14
1.11	0.22	1.27	58.14
1.11	0.11	1.29	58.14
1.11	0.00	1.29	58.14
1.11	-0.11	1.29	58.14
1.11	-0.22	1.27	58.14
1.11	-0.33	1.25	58.14
1.11	-0.44	1.22	58.14
1.11	-0.55	1.17	58.14
1.11	-0.65	1.12	58.14
1.11	-0.74	1.06	58.14
1.11	-0.83	0.99	58.14
1.11	-0.91	0.91	58.14
1.11	-0.99	0.83	58.14
1.11	-1.06	0.74	58.14
1.11	-1.12	0.65	58.14
1.11	-1.17	0.55	58.14
1.11	-1.22	0.44	58.14
1.11	-1.25	0.33	58.14
1.11	-1.27	0.22	58.14
1.11	-1.29	0.11	58.14
1.11	-1.29	0.00	58.14
1.11	-1.29	-0.11	58.14
1.11	-1.27	-0.22	58.14
1.11	-1.25	-0.33	58.14
1.11	-1.22	-0.44	58.14
1.11	-1.17	-0.55	58.14
1.11	-1.12	-0.65	58.14
1.11	-1.06	-0.74	58.14
1.11	-0.99	-0.83	58.14
1.11	-0.91	-0.91	58.14
1.11	-0.83	-0.99	58.14
1.11	-0.74	-1.06	58.14
1.11	-0.65	-1.12	58.14
1.11	-0.55	-1.17	58.14
1.11	-0.44	-1.22	58.14
1.11	-0.33	-1.25	58.14
1.11	-0.22	-1.27	58.14
1.11	-0.11	-1.29	58.14
1.11	-0.00	-1.29	58.14
1.11	0.11	-1.29	58.14
1.11	0.22	-1.27	58.14
1.11	0.33	-1.25	58.14
1.11	0.44	-1.22	58.14
1.11	0.55	-1.17	58.14
1.11	0.65	-1.12	58.14
1.11	0.74	-1.06	58.14
1.11	0.83	-0.99	58.14
1.11	0.91	-0.91	58.14
1.11	0.99	-0.83	58.14
1.11	1.06	-0.74	58.14
1.11	1.12	-0.65	58.14
1.11	1.17	-0.55	58.14
1.11	1.22	-0.44	58.14
1.11	1.25	-0.33	58.14
1.11	1.27	-0.22	58.14
1.11	1.29	-0.11	58.14
1.11	1.29	0.00	58.14
1.19	1.32	0.00	55.42
1.19	1.31	0.12	55.42
1.19	1.30	0.23	55.42
1.19	1.27	0.34	55.42
1.19	1.24	0.45	55.42
1.19	1.20	0.56	55.42
1.19	1.14	0.66	55.42
1.19	1.08	0.76	55.42
1.19	1.01	0.85	55.42
1.19	0.93	0.93	55.42
1.19	0.85	1.01	55.42
1.19	0.76	1.08	55.42
1.19	0.66	1.14	55.42
1.19	0.56	1.20	55.42
1.19	0.45	1.24	55.42
1.19	0.34	1.27	55.42
1.19	0.23	1.30	55.42
1.19	0.12	1.31	55.42
1.19	0.00	1.32	55.42
1.19	-0.12	1.31	55.42
1.19	-0.23	1.30	55.42
1.19	-0.34	1.27	55.42
1.19	-0.45	1.24	55.42
1.19	-0.56	1.20	55.42
1.19	-0.66	1.14	55.42
1.19	-0.76	1.08	55.42
1.19	-0.85	1.01	55.42
1.19	-0.93	0.93	55.42
1.19	-1.01	0.85	55.42
1.19	-1.08	0.76	55.42
1.19	-1.14	0.66	55.42
1.19	-1.20	0.56	55.42
1.19	-1.24	0.45	55.42
1.19	-1.27	0.34	55.42
1.19	-1.30	0.23	55.42
1.19	-1.31	0.12	55.42
1.19	-1.32	0.00	55.42
1.19	-1.31	-0.12	55.42
1.19	-1.30	-0.23	55.42
1.19	-1.27	-0.34	55.42
1.19	-1.24	-0.45	55.42
1.19	-1.20	-0.56	55.42
1.19	-1.14	-0.66	55.42
1.19	-1.08	-0.76	55.42
1.19	-1.01	-0.85	55.42
1.19	-0.93	-0.93	55.42
1.19	-0.85	-1.01	55.42
1.19	-0.76	-1.08	55.42
1.19	-0.66	-1.14	55.42
1.19	-0.56	-1.20	55.42
1.19	-0.45	-1.24	55.42
1.19	-0.34	-1.27	55.42
1.19	-0.23	-1.30	55.42
1.19	-0.12	-1.31	55.42
1.19	-0.00	-1.32	55.42
1.19	0.12	-1.31	55.42
1.19	0.23	-1.30	55.42
1.19	0.34	-1.27	55.42
1.19	0.45	-1.24	55.42
1.19	0.56	-1.20	55.42
1.19	0.66	-1.14	55.42
1.19	0.76	-1.08	55.42
1.19	0.85	-1.01	55.42
1.19	0.93	-0.93	55.42
1.19	1.01	-0.85	55.42
1.19	1.08	-0.76	55.42
1.19	1.14	-0.66	55.42
1.19	1.20	-0.56	55.42
1.19	1.24	-0.45	55.42
1.19	1.27	-0.34	55.42
1.19	1.30	-0.23	55.42
1.19	1.31	-0.12	55.42
1.19	1.32	0.00	55.42
1.28	1.35	0.00	52.92
1.28	1.34	0.12	52.92
1.28	1.33	0.23	52.92
1.28	1.30	0.35	52.92
1.28	1.26	0.46	52.92
1.28	1.22	0.57	52.92
1.28	1.17	0.67	52.92
1.28	1.10	0.77	52.92
1.28	1.03	0.87	52.92
1.28	0.95	0.95	52.92
1.28	0.87	1.03	52.92
1.28	0.77	1.10	52.92
1.28	0.67	1.17	52.92
1.28	0.57	1.22	52.92
1.28	0.46	1.26	52.92
1.28	0.35	1.30	52.92
1.28	0.23	1.33	52.92
1.28	0.12	1.34	52.92
1.28	0.00	1.35	52.92
1.28	-0.12	1.34	52.92
1.28	-0.23	1.33	52.92
1.28	-0.35	1.30	52.92
1.28	-0.46	1.26	52.92
1.28	-0.57	1.22	52.92
1.28	-0.67	1.17	52.92
1.28	-0.77	1.10	52.92
1.28	-0.87	1.03	52.92
1.28	-0.95	0.95	52.92
1.28	-1.03	0.87	52.92
1.28	-1.10	0.77	52.92
1.28	-1.17	0.67	52.92
1.28	-1.22	0.57	52.92
1.28	-1.26	0.46	52.92
1.28	-1.30	0.35	52.92
1.28	-1.33	0.23	52.92
1.28	-1.34	0.12	52.92
1.28	-1.35	0.00	52.92
1.28	-1.34	-0.12	52.92
1.28	-1.33	-0.23	52.92
1.28	-1.30	-0.35	52.92
1.28	-1.26	-0.46	52.92
1.28	-1.22	-0.57	52.92
1.28	-1.17	-0.67	52.92
1.28	-1.10	-0.77	52.92
1.28	-1.03	-0.87	52.92
1.28	-0.95	-0.95	52.92
1.28	-0.87	-1.03	52.92
1.28	-0.77	-1.10	52.92
1.28	-0.67	-1.17	52.92
1.28	-0.57	-1.22	52.92
1.28	-0.46	-1.26	52.92
1.28	-0.35	-1.30	52.92
1.28	-0.23	-1.33	52.92
1.28	-0.12	-1.34	52.92
1.28	-0.00	-1.35	52.92
1.28	0.12	-1.34	52.92
1.28	0.23	-1.33	52.92
1.28	0.35	-1.30	52.92
1.28	0.46	-1.26	52.92
1.28	0.57	-1.22	52.92
1.28	0.67	-1.17	52.92
1.28	0.77	-1.10	52.92
1.28	0.87	-1.03	52.92
1.28	0.95	-0.95	52.92
1.28	1.03	-0.87	52.92
1.28	1.10	-0.77	52.92
1.28	1.17	-0.67	52.92
1.28	1.22	-0.57	52.92
1.28	1.26	-0.46	52.92
1.28	1.30	-0.35	52.92
1.28	1.33	-0.23	52.92
1.28	1.34	-0.12	52.92
1.28	1.35	0.00	52.92
1.36	1.37	0.00	50.65
1.36	1.37	0.12	50.65
1.36	1.35	0.24	50.65
1.36	1.32	0.35	50.65
1.36	1.29	0.47	50.65
1.36	1.24	0.58	50.65
1.36	1.19	0.69	50.65
1.36	1.12	0.79	50.65
1.36	1.05	0.88	50.65
1.36	0.97	0.97	50.65
1.36	0.88	1.05	50.65
1.36	0.79	1.12	50.65
1.36	0.69	1.19	50.65
1.36	0.58	1.24	50.65
1.36	0.47	1.29	50.65
1.36	0.35	1.32	50.65
1.36	0.24	1.35	50.65
1.36	0.12	1.37	50.65
1.36	0.00	1.37	50.65
1.36	-0.12	1.37	50.65
1.36	-0.24	1.35	50.65
1.36	-0.35	1.32	50.65
1.36	-0.47	1.29	50.65
1.36	-0.58	1.24	50.65
1.36	-0.69	1.19	50.65
1.36	-0.79	1.12	50.65
1.36	-0.88	1.05	50.65
1.36	-0.97	0.97	50.65
1.36	-1.05	0.88	50.65
1.36	-1.12	0.79	50.65
1.36	-1.19	0.69	50.65
1.36	-1.24	0.58	50.65
1.36	-1.29	0.47	50.65
1.36	-1.32	0.35	50.65
1.36	-1.35	0.24	50.65
1.36	-1.37	0.12	50.65
1.36	-1.37	0.00	50.65
1.36	-1.37	-0.12	50.65
1.36	-1.35	-0.24	50.65
1.36	-1.32	-0.35	50.65
1.36	-1.29	-0.47	50.65
1.36	-1.24	-0.58	50.65
1.36	-1.19	-0.69	50.65
1.36	-1.12	-0.79	50.65
1.36	-1.05	-0.88	50.65
1.36	-0.97	-0.97	50.65
1.36	-0.88	-1.05	50.65
1.36	-0.79	-1.12	50.65
1.36	-0.69	-1.19	50.65
1.36	-0.58	-1.24	50.65
1.36	-0.47	-1.29	50.65
1.36	-0.35	-1.32	50.65
1.36	-0.24	-1.35	50.65
1.36	-0.12	-1.37	50.65
1.36	-0.00	-1.37	50.65
1.36	0.12	-1.37	50.65
1.36	0.24	-1.35	50.65
1.36	0.35	-1.32	50.65
1.36	0.47	-1.29	50.65
1.36	0.58	-1.24	50.65
1.36	0.69	-1.19	50.65
1.36	0.79	-1.12	50.65
1.36	0.88	-1.05	50.65
1.36	0.97	-0.97	50.65
1.36	1.05	-0.88	50.65
1.36	1.12	-0.79	50.65
1.36	1.19	-0.69	50.65
1.36	1.24	-0.58	50.65
1.36	1.29	-0.47	50.65
1.36	1.32	-0.35	50.65
1.36	1.35	-0.24	50.65
1.36	1.37	-0.12	50.65
1.36	1.37	0.00	50.65
1.45	1.40	0.00	48.62
1.45	1.39	0.12	48.62
1.45	1.38	0.24	48.62
1.45	1.35	0.36	48.62
1.45	1.31	0.48	48.62
1.45	1.27	0.59	48.62
1.45	1.21	0.70	48.62
1.45	1.14	0.80	48.62
1.45	1.07	0.90	48.62
1.45	0.99	0.99	48.62
1.45	0.90	1.07	48.62
1.45	0.80	1.14	48.62
1.45	0.70	1.21	48.62
1.45	0.59	1.27	48.62
1.45	0.48	1.31	48.62
1.45	0.36	1.35	48.62
1.45	0.24	1.38	48.62
1.45	0.12	1.39	48.62
1.45	0.00	1.40	48.62
1.45	-0.12	1.39	48.62
1.45	-0.24	1.38	48.62
1.45	-0.36	1.35	48.62
1.45	-0.48	1.31	48.62
1.45	-0.59	1.27	48.62
1.45	-0.70	1.21	48.62
1.45	-0.80	1.14	48.62
1.45	-0.90	1.07	48.62
1.45	-0.99	0.99	48.62
1.45	-1.07	0.90	48.62
1.45	-1.14	0.80	48.62
1.45	-1.21	0.70	48.62
1.45	-1.27	0.59	48.62
1.45	-1.31	0.48	48.62
1.45	-1.35	0.36	48.62
1.45	-1.38	0.24	48.62
1.45	-1.39	0.12	48.62
1.45	-1.40	0.00	48.62
1.45	-1.39	-0.12	48.62
1.45	-1.38	-0.24	48.62
1.45	-1.35	-0.36	48.62
1.45	-1.31	-0.48	48.62
1.45	-1.27	-0.59	48.62
1.45	-1.21	-0.70	48.62
1.45	-1.14	-0.80	48.62
1.45	-1.07	-0.90	48.62