VARIABLES = "X/R","R/R","Mach","Theta","Massflow","I",
TITLE = "RRC Contours"
text  x=5  y=93  t="MOC Grid Data"
zone t="J = 0"
0	1	1.17779	0	35.7288	0
0.000115146	0.999815	1.17793	0.0142295	35.7157	1
0.000460843	0.99926	1.17833	0.0567608	35.6764	2
0.00103843	0.998335	1.17901	0.127212	35.6109	3
0.00185042	0.997042	1.17996	0.224996	35.5193	4
0.00290049	0.99538	1.18118	0.349323	35.4017	5
0.00419348	0.99335	1.1827	0.499205	35.2583	6
0.00573538	0.990955	1.18451	0.67346	35.0891	7
0.00753329	0.988195	1.18662	0.870718	34.8943	8
0.00959544	0.985073	1.18904	1.08943	34.6742	9
0.0119311	0.981589	1.19179	1.32788	34.429	10
0.0145506	0.977747	1.19487	1.58418	34.1589	11
0.0174652	0.973549	1.19829	1.85631	33.8643	12
0.0206871	0.968997	1.20206	2.14213	33.5454	13
0.0242295	0.964094	1.20618	2.43935	33.2027	14
0.0281061	0.958842	1.21067	2.74562	32.8366	15
0.0323314	0.953247	1.21552	3.05853	32.4474	16
0.0369204	0.94731	1.22073	3.37561	32.0358	17
0.0418884	0.941036	1.2263	3.69437	31.6021	18
0.047251	0.934428	1.23222	4.01235	31.147	19
0.053024	0.927491	1.23849	4.32714	30.671	20
0.0592226	0.920228	1.24509	4.6364	30.1749	21
0.065862	0.912645	1.25201	4.93788	29.6594	22
0.0729568	0.904746	1.25921	5.22951	29.1252	23
0.0805207	0.896536	1.26669	5.50934	28.5732	24
0.0885663	0.888021	1.27441	5.77563	28.0043	25
0.0971052	0.879204	1.28234	6.02686	27.4193	26
0.106147	0.870093	1.29045	6.26173	26.8194	27
0.115701	0.860693	1.29871	6.47917	26.2055	28
0.125773	0.85101	1.30709	6.67837	25.5787	29
0.136367	0.841049	1.31554	6.85878	24.9403	30
0.147487	0.830818	1.32404	7.02008	24.2913	31
0.159132	0.820322	1.33255	7.16219	23.6331	32
0.171301	0.809568	1.34105	7.28524	22.9669	33
0.18399	0.798564	1.34949	7.3896	22.2939	34
0.197194	0.787315	1.35787	7.47579	21.6155	35
0.210903	0.77583	1.36615	7.5445	20.9329	36
0.225109	0.764116	1.37432	7.59653	20.2475	37
0.239801	0.75218	1.38237	7.63282	19.5605	38
0.254966	0.74003	1.3903	7.65433	18.8733	39
0.270589	0.727673	1.39809	7.66209	18.187	40
0.286657	0.715119	1.40576	7.65715	17.5029	41
0.303153	0.702374	1.41331	7.64053	16.8222	42
0.320063	0.689448	1.42075	7.61322	16.146	43
0.337369	0.676348	1.42811	7.57616	15.4755	44
0.355055	0.663084	1.4354	7.53023	14.8118	45
0.373106	0.649663	1.44265	7.4762	14.1559	46
0.391504	0.636096	1.44989	7.41478	13.5088	47
0.410235	0.622391	1.45714	7.34657	12.8715	48
0.429283	0.608557	1.46444	7.27207	12.2448	49
0.448634	0.594604	1.47183	7.19172	11.6297	50
0.468272	0.58054	1.47934	7.10582	11.027	51
0.488185	0.566376	1.48699	7.01465	10.4375	52
0.508358	0.552122	1.49483	6.91838	9.86193	53
0.518569	0.537786	1.4918	6.6809	9.34071	54
0.538832	0.523379	1.49991	6.57725	8.79441	55
0.549073	0.508912	1.49759	6.34561	8.29959	56
0.559232	0.494394	1.49566	6.11855	7.81785	57
0.56931	0.479835	1.49413	5.89595	7.34966	58
0.579307	0.465246	1.49301	5.67769	6.89547	59
0.589224	0.450638	1.49229	5.46366	6.45565	60
0.59906	0.436021	1.49198	5.25374	6.03058	61
0.608817	0.421406	1.49209	5.04784	5.62055	62
0.618493	0.406804	1.4926	4.84587	5.22584	63
0.62809	0.392226	1.4935	4.64774	4.84667	64
0.637605	0.377683	1.49479	4.45341	4.48322	65
0.647039	0.363186	1.49646	4.26282	4.13562	66
0.656391	0.348748	1.49849	4.07592	3.80394	67
0.661024	0.334378	1.49669	3.86275	3.49468	68
0.670149	0.320089	1.49937	3.68454	3.19437	69
0.674667	0.305893	1.49835	3.48394	2.91515	70
0.679114	0.291802	1.49768	3.29008	2.65065	71
0.683491	0.277828	1.49733	3.10276	2.40084	72
0.687796	0.263984	1.49729	2.92178	2.16563	73
0.692029	0.250281	1.49752	2.74697	1.94487	74
0.696189	0.236733	1.498	2.57813	1.73839	75
0.700276	0.223353	1.49871	2.41506	1.54596	76
0.704288	0.210154	1.49964	2.25757	1.36733	77
0.706255	0.19715	1.49905	2.09877	1.20305	78
0.708179	0.184354	1.49866	1.94625	1.05166	79
0.710058	0.17178	1.49846	1.79977	0.912816	80
0.713725	0.159445	1.49999	1.66405	0.785646	81
0.71462	0.147362	1.49933	1.52631	0.671078	82
0.716361	0.135548	1.49956	1.39636	0.567588	83
0.718052	0.124019	1.49991	1.27159	0.47497	84
0.718873	0.112792	1.49965	1.15031	0.392839	85
0.719666	0.101886	1.4995	1.03426	0.32051	86
0.720431	0.091319	1.49944	0.923324	0.257446	87
0.721168	0.0811128	1.49947	0.817406	0.203088	88
0.721874	0.0712893	1.49956	0.716457	0.156852	89
0.722548	0.0618726	1.49972	0.620479	0.118134	90
0.723189	0.0528898	1.49992	0.529525	0.086309	91
0.723493	0.044371	1.4999	0.443493	0.0607422	92
0.723777	0.0363508	1.49993	0.362881	0.0407659	93
0.72391	0.0288697	1.49989	0.287892	0.0257127	94
0.724153	0.0219768	1.49998	0.21904	0.0148993	95
0.724263	0.0157341	1.5	0.15675	0.00763677	96
0.724311	0.010224	1.49999	0.101826	0.00322453	97
0.724331	0.00556695	1.49999	0.0554352	0.000956004	98
0.724347	0.00196858	1.49999	0.019602	0.000119544	99
0.724356	0	1.5	0	0	100
zone t="J = 1"
0.000230286	1	1.17789	0.0131944	36.0004	0
0.000575735	0.999445	1.17719	0.0296785	35.9611	1
0.00115151	0.998518	1.17604	0.0569172	35.8954	2
0.00195787	0.997216	1.17445	0.0945802	35.8032	3
0.00299525	0.995534	1.17243	0.14222	35.6842	4
0.00426431	0.993466	1.17001	0.199277	35.5381	5
0.00576594	0.991005	1.1672	0.265089	35.3642	6
0.00750127	0.988142	1.16405	0.338896	35.1623	7
0.00947171	0.984866	1.16059	0.419858	34.9315	8
0.0116789	0.981164	1.15684	0.507057	34.6712	9
0.0141249	0.977022	1.15286	0.59952	34.3807	10
0.0168119	0.972425	1.14868	0.696226	34.0591	11
0.0197424	0.967356	1.14436	0.796122	33.7055	12
0.0229193	0.961794	1.13994	0.898141	33.3191	13
0.0263457	0.955721	1.13547	1.00121	32.8989	14
0.0300251	0.949114	1.131	1.10428	32.444	15
0.0339608	0.941953	1.1266	1.20631	31.9537	16
0.0381567	0.934215	1.12232	1.3063	31.4272	17
0.0426167	0.925879	1.11822	1.40331	30.8641	18
0.0473446	0.916924	1.11435	1.49642	30.264	19
0.0523445	0.907334	1.11078	1.58478	29.6269	20
0.0576203	0.897094	1.10756	1.6676	28.9533	21
0.063176	0.886196	1.10474	1.74413	28.2442	22
0.0690152	0.874636	1.10239	1.81368	27.5007	23
0.0751417	0.862418	1.10055	1.87561	26.725	24
0.0815592	0.849553	1.09926	1.92936	25.9195	25
0.0882712	0.836061	1.09857	1.97445	25.0873	26
0.095281	0.821967	1.09848	2.01047	24.2319	27
0.102592	0.807304	1.09903	2.03714	23.3572	28
0.110208	0.79211	1.10019	2.05431	22.4672	29
0.118131	0.776425	1.10196	2.06198	21.5663	30
0.126365	0.760289	1.10432	2.06028	20.6583	31
0.134912	0.743742	1.10721	2.0495	19.7473	32
0.143773	0.726822	1.11059	2.03001	18.8368	33
0.152951	0.709565	1.11442	2.00231	17.9302	34
0.162445	0.692002	1.11863	1.96694	17.0306	35
0.172253	0.674163	1.12319	1.92447	16.1405	36
0.182374	0.656072	1.12803	1.87548	15.2626	37
0.192803	0.637755	1.13311	1.8205	14.3989	38
0.203536	0.619232	1.1384	1.76001	13.5515	39
0.214565	0.600525	1.14386	1.69443	12.7221	40
0.225885	0.581651	1.14945	1.62407	11.9124	41
0.237485	0.562631	1.15517	1.54912	11.1239	42
0.249357	0.543482	1.16099	1.46967	10.3579	43
0.261488	0.524221	1.1669	1.38565	9.61569	44
0.273868	0.504867	1.17289	1.29686	8.89838	45
0.286483	0.485437	1.17897	1.20295	8.20698	46
0.29932	0.46595	1.18515	1.10339	7.54243	47
0.312364	0.446424	1.19142	0.99749	6.90553	48
0.3256	0.426879	1.1978	0.884362	6.297	49
0.339011	0.407333	1.20431	0.762906	5.71746	50
0.35258	0.387807	1.21097	0.63178	5.16741	51
0.366289	0.36832	1.2178	0.489346	4.64728	52
0.375879	0.354818	1.22189	0.402648	4.30364	53
0.389674	0.335571	1.229	0.239676	3.83745	54
0.399351	0.322189	1.23331	0.136708	3.52972	55
0.40902	0.308902	1.23772	0.0263128	3.23737	56
0.418843	0.295502	1.24169	0	2.95561	57
0.428607	0.282319	1.24713	0	2.69109	58
0.438302	0.269408	1.25398	0	2.44423	59
0.447987	0.256713	1.26167	0	2.21336	60
0.45769	0.244208	1.26988	0	1.99744	61
0.467426	0.231878	1.27847	0	1.79572	62
0.4772	0.219716	1.28734	0	1.6076	63
0.487012	0.207718	1.29645	0	1.43256	64
0.496863	0.195884	1.30577	0	1.27011	65
0.506749	0.184212	1.31528	0	1.1198	66
0.514644	0.17504	1.32366	0	1.00856	67
0.524603	0.163647	1.3328	0	0.878785	68
0.532573	0.154665	1.34108	0	0.782983	69
0.540583	0.14576	1.34895	0	0.693656	70
0.548609	0.136951	1.35663	0	0.610786	71
0.556613	0.128276	1.36472	0	0.534506	72
0.564627	0.119698	1.37246	0	0.464241	73
0.572632	0.111233	1.38004	0	0.399888	74
0.580613	0.102888	1.38751	0	0.341284	75
0.588559	0.0946718	1.39493	0	0.288236	76
0.595566	0.087503	1.40165	0	0.245701	77
0.602537	0.0804376	1.40799	0	0.20718	78
0.609454	0.0734895	1.4141	0	0.172567	79
0.617147	0.0658307	1.42068	0	0.138145	80
0.623494	0.0595667	1.42653	0	0.112885	81
0.630168	0.0530313	1.43227	0	0.0892919	82
0.636736	0.0466511	1.4379	0	0.0689611	83
0.642797	0.0408055	1.44314	0	0.052665	84
0.648734	0.0351178	1.44811	0	0.038937	85
0.654531	0.0296002	1.45289	0	0.0276148	86
0.660172	0.024265	1.45752	0	0.0185256	87
0.665638	0.0191246	1.46199	0	0.0114888	88
0.670913	0.0141924	1.46632	0	0.00631684	89
0.675977	0.00948315	1.47049	0	0.00281582	90
0.680662	0.00514822	1.47438	0	0.000828628	91
0.685099	0.00106219	1.47804	0	3.52395e-05	92
0.686255	0	1.47804	0	0	93
zone t="J = 2"
0.000920735	1	1.17816	0.0527543	36.0074	0
0.00149684	0.999076	1.17702	0.0799959	35.9419	1
0.00230366	0.997779	1.17543	0.117663	35.85	2
0.00334166	0.996102	1.17342	0.165308	35.7313	3
0.00461152	0.994042	1.171	0.222371	35.5856	4
0.00611415	0.991589	1.16821	0.28819	35.4122	5
0.00785071	0.988736	1.16506	0.362006	35.2108	6
0.00982264	0.985471	1.16161	0.442976	34.9807	7
0.0120316	0.981782	1.15787	0.530185	34.7212	8
0.0144797	0.977655	1.1539	0.622659	34.4315	9
0.0171693	0.973075	1.14974	0.719375	34.1109	10
0.0201028	0.968024	1.14543	0.819281	33.7584	11
0.0232833	0.962484	1.14102	0.921311	33.3731	12
0.0267139	0.956434	1.13657	1.02439	32.9542	13
0.0303981	0.949853	1.13213	1.12747	32.5008	14
0.0343396	0.942721	1.12775	1.22951	32.012	15
0.0385423	0.935015	1.12349	1.3295	31.4872	16
0.04301	0.926713	1.11941	1.42651	30.9259	17
0.047747	0.917797	1.11557	1.51962	30.3278	18
0.0527573	0.908249	1.11201	1.60798	29.6928	19
0.058045	0.898055	1.10882	1.69079	29.0215	20
0.0636143	0.887206	1.10602	1.76731	28.3147	21
0.0694691	0.875698	1.10369	1.83684	27.5737	22
0.0756132	0.863536	1.10187	1.89875	26.8004	23
0.0820504	0.850729	1.1006	1.95248	25.9974	24
0.0887842	0.837296	1.09992	1.99754	25.1676	25
0.0958182	0.823264	1.09985	2.03354	24.3145	26
0.103156	0.808663	1.1004	2.06019	23.442	27
0.1108	0.79353	1.10158	2.07735	22.554	28
0.118754	0.777905	1.10335	2.08502	21.6547	29
0.127021	0.761827	1.1057	2.08334	20.7482	30
0.135603	0.745336	1.10859	2.07258	19.8383	31
0.144501	0.728471	1.11197	2.05314	18.9286	32
0.153716	0.711264	1.11579	2.0255	18.0225	33
0.163249	0.69375	1.12	1.99022	17.123	34
0.173097	0.675956	1.12455	1.94786	16.2329	35
0.183259	0.657908	1.12939	1.899	15.3546	36
0.19373	0.639632	1.13446	1.84418	14.4903	37
0.204505	0.621148	1.13974	1.78387	13.642	38
0.215577	0.602477	1.14519	1.7185	12.8116	39
0.22694	0.583638	1.15079	1.64838	12.0007	40
0.238583	0.564651	1.1565	1.5737	11.2107	41
0.250499	0.545533	1.16231	1.49455	10.4432	42
0.262674	0.526302	1.16822	1.41088	9.69925	43
0.275098	0.506977	1.17421	1.32248	8.98006	44
0.287758	0.487574	1.18029	1.229	8.28667	45
0.30064	0.468113	1.18646	1.12994	7.62	46
0.313729	0.448612	1.19274	1.0246	6.98087	47
0.327011	0.42909	1.19912	0.912113	6.37	48
0.340469	0.409566	1.20563	0.791393	5.78803	49
0.354085	0.39006	1.2123	0.661117	5.23547	50
0.367842	0.370593	1.21913	0.519675	4.71274	51
0.377463	0.357106	1.22322	0.433696	4.36732	52
0.391307	0.337875	1.23033	0.272008	3.89844	53
0.401017	0.324506	1.23464	0.17	3.58886	54
0.410719	0.311232	1.23906	0.0606846	3.29463	55
0.420561	0.297835	1.24157	0	3.01076	56
0.430316	0.28462	1.24435	0	2.74333	57
0.439981	0.271639	1.24918	0	2.49278	58
0.449621	0.258852	1.25544	0	2.25784	59
0.459269	0.24624	1.26269	0	2.03774	60
0.468942	0.233796	1.27061	0	1.8319	61
0.478649	0.221518	1.279	0	1.63984	62
0.488392	0.209405	1.28776	0	1.46109	63
0.498172	0.197457	1.2968	0	1.29517	64
0.507986	0.185673	1.30607	0	1.14165	65
0.515827	0.176415	1.31489	0	1.02806	66
0.525718	0.164923	1.32387	0	0.895638	67
0.533636	0.155864	1.3325	0	0.797899	68
0.541596	0.146887	1.34074	0	0.70683	69
0.549575	0.138012	1.3487	0	0.622391	70
0.557534	0.129275	1.35673	0	0.544684	71
0.565504	0.120637	1.36461	0	0.473114	72
0.573466	0.112115	1.37234	0	0.407581	73
0.581405	0.103716	1.37994	0	0.347912	74
0.589311	0.0954493	1.38744	0	0.293905	75
0.596284	0.0882379	1.39455	0	0.250609	76
0.603223	0.0811335	1.40128	0	0.211412	77
0.610111	0.0741496	1.4077	0	0.1762	78
0.617772	0.0664529	1.4142	0	0.141174	79
0.624093	0.0601586	1.42037	0	0.115464	80
0.630743	0.0535935	1.42633	0	0.0914459	81
0.637286	0.0471857	1.43212	0	0.0707391	82
0.643326	0.0413159	1.43763	0	0.0541309	83
0.649244	0.035606	1.44287	0	0.0401285	84
0.655023	0.0300683	1.44789	0	0.0285653	85
0.660647	0.0247145	1.4527	0	0.0192646	86
0.666098	0.019557	1.45735	0	0.0120425	87
0.671358	0.0146091	1.46184	0	0.00670859	88
0.676409	0.00988547	1.46616	0	0.00306664	89
0.681083	0.00553796	1.47027	0	0.000960898	90
0.68551	0.00144076	1.47416	0	6.49367e-05	91
0.686664	0.000376396	1.4761	0	4.42978e-06	92
0.687073	0	1.4761	0	0	93
zone t="J = 3"
0.00207073	1	1.17865	0.118644	36.0124	0
0.00287833	0.998711	1.17707	0.156318	35.9209	1
0.00391738	0.997045	1.17507	0.203971	35.8027	2
0.00518859	0.994995	1.17266	0.261045	35.6576	3
0.00669289	0.992557	1.16988	0.326875	35.4851	4
0.00843151	0.98972	1.16675	0.400704	35.2846	5
0.0104059	0.986473	1.16331	0.481689	35.0556	6
0.0126179	0.982806	1.1596	0.568914	34.7974	7
0.0150696	0.978704	1.15565	0.661404	34.5091	8
0.0177634	0.974151	1.15151	0.758137	34.19	9
0.020702	0.969131	1.14722	0.858061	33.8392	10
0.0238884	0.963625	1.14284	0.960107	33.4559	11
0.027326	0.957614	1.13842	1.0632	33.0391	12
0.0310185	0.951076	1.13401	1.16629	32.588	13
0.0349695	0.943991	1.12966	1.26834	32.1018	14
0.0391833	0.936337	1.12544	1.36835	31.5798	15
0.043664	0.928093	1.1214	1.46536	31.0215	16
0.0484159	0.91924	1.11759	1.55847	30.4266	17
0.0534434	0.90976	1.11407	1.64683	29.7952	18
0.0587509	0.899641	1.11091	1.72962	29.1275	19
0.0643428	0.888872	1.10816	1.80612	28.4245	20
0.0702232	0.877449	1.10586	1.87562	27.6874	21
0.0763962	0.865377	1.10407	1.93751	26.9182	22
0.0828658	0.852665	1.10283	1.9912	26.1192	23
0.0896358	0.83933	1.10218	2.03623	25.2934	24
0.0967097	0.825397	1.10213	2.07219	24.4441	25
0.104091	0.810896	1.10269	2.09881	23.575	26
0.111783	0.795863	1.10388	2.11596	22.6902	27
0.119788	0.780336	1.10566	2.12363	21.7937	28
0.128108	0.764354	1.10801	2.12197	20.8895	29
0.136747	0.747956	1.11089	2.11126	19.9814	30
0.145705	0.731178	1.11427	2.0919	19.0731	31
0.154983	0.714055	1.11808	2.06437	18.1678	32
0.16458	0.69662	1.12228	2.02923	17.2687	33
0.174494	0.678901	1.12682	1.98706	16.3785	34
0.184723	0.660925	1.13164	1.93841	15.4996	35
0.195262	0.642716	1.13671	1.88385	14.6343	36
0.206107	0.624296	1.14198	1.82385	13.7847	37
0.21725	0.605686	1.14742	1.75882	12.9527	38
0.228683	0.586905	1.15301	1.68909	12.1397	39
0.240399	0.567973	1.15871	1.61486	11.3475	40
0.252386	0.548907	1.16452	1.53621	10.5774	41
0.264634	0.529727	1.17042	1.4531	9.8307	42
0.277132	0.510449	1.17641	1.36534	9.10849	43
0.289865	0.491093	1.18249	1.27257	8.41185	44
0.302822	0.471675	1.18866	1.17432	7.74173	45
0.315986	0.452216	1.19494	1.06989	7.09897	46
0.329344	0.432733	1.20132	0.958444	6.48431	47
0.342879	0.413246	1.20784	0.83892	5.89837	48
0.356573	0.393775	1.2145	0.710024	5.3417	49
0.370409	0.374339	1.22134	0.570189	4.81472	50
0.380082	0.360878	1.22544	0.485373	4.4664	51
0.394008	0.341674	1.23255	0.325759	3.9931	52
0.403772	0.328329	1.23688	0.225297	3.68048	53
0.413529	0.315075	1.24131	0.11772	3.38318	54
0.423417	0.301711	1.24378	0.0571087	3.09643	55
0.433204	0.288518	1.2452	0.0219295	2.82588	56
0.44288	0.275518	1.24762	0	2.57138	57
0.452507	0.26267	1.25154	0	2.33168	58
0.462125	0.249968	1.25713	0	2.1063	59
0.471758	0.237414	1.26389	0	1.89502	60
0.481417	0.225016	1.27147	0	1.69753	61
0.491107	0.212779	1.27964	0	1.51352	62
0.500831	0.200704	1.28825	0	1.34257	63
0.510587	0.188794	1.29719	0	1.18429	64
0.518385	0.179435	1.30607	0	1.0671	65
0.528217	0.167826	1.31499	0	0.930515	66
0.536093	0.158675	1.32377	0	0.829647	67
0.544012	0.149612	1.33228	0	0.735671	68
0.551952	0.140656	1.34051	0	0.648542	69
0.559873	0.131843	1.34863	0	0.568338	70
0.567807	0.123133	1.35664	0	0.494437	71
0.575732	0.114542	1.3645	0	0.426733	72
0.583638	0.106078	1.37223	0	0.365043	73
0.59151	0.097749	1.37985	0	0.309156	74
0.598456	0.0904847	1.38721	0	0.264302	75
0.605369	0.0833312	1.39425	0	0.223656	76
0.612233	0.0763019	1.40098	0	0.187098	77
0.619867	0.0685582	1.4076	0	0.150671	78
0.626169	0.0622257	1.41399	0	0.123865	79
0.632798	0.0556231	1.42016	0	0.0987589	80
0.639322	0.0491802	1.42615	0	0.0770397	81
0.645346	0.0432793	1.43189	0	0.0595436	82
0.651249	0.0375408	1.43739	0	0.0447141	83
0.657014	0.0319766	1.44264	0	0.0323808	84
0.662625	0.0265984	1.44768	0	0.0223636	85
0.668065	0.0214184	1.45252	0	0.0144754	86
0.673315	0.0164497	1.45718	0	0.00852351	87
0.678357	0.011707	1.46167	0	0.00430963	88
0.683022	0.0073424	1.46597	0	0.00169233	89
0.687442	0.00322976	1.47007	0	0.000326756	90
0.688597	0.00216023	1.47308	0	0.000146054	91
0.689006	0.00178245	1.47459	0	9.94241e-05	92
0.690938	0	1.47459	0	0	93
zone t="J = 4"
0.00367965	1.00001	1.17938	0.210829	36.0154	0
0.0047202	0.998353	1.17739	0.258494	35.8981	1
0.00599331	0.996319	1.17499	0.315581	35.7539	2
0.0075	0.9939	1.17223	0.381428	35.5825	3
0.00924153	0.991085	1.16912	0.455275	35.3833	4
0.0112195	0.987865	1.16571	0.53628	35.1558	5
0.0134357	0.984227	1.16202	0.623526	34.8992	6
0.0158925	0.980158	1.1581	0.716038	34.6129	7
0.0185922	0.975644	1.15399	0.812794	34.296	8
0.0215379	0.970666	1.14974	0.912742	33.9476	9
0.0247327	0.965207	1.1454	1.01481	33.5669	10
0.0281801	0.959249	1.14101	1.11793	33.1531	11
0.031884	0.95277	1.13665	1.22104	32.7052	12
0.0358484	0.945749	1.13234	1.3231	32.2225	13
0.0400776	0.938167	1.12817	1.42312	31.7043	14
0.0445763	0.930001	1.12417	1.52014	31.1501	15
0.049349	0.921234	1.12042	1.61325	30.5596	16
0.0544004	0.911848	1.11695	1.7016	29.9329	17
0.0597353	0.901829	1.11384	1.78438	29.2702	18
0.0653584	0.891169	1.11114	1.86085	28.5724	19
0.0712742	0.879862	1.10889	1.93032	27.8407	20
0.0774871	0.867913	1.10714	1.99216	27.0769	21
0.0840014	0.855328	1.10594	2.04581	26.2833	22
0.0908211	0.842125	1.10532	2.09079	25.4628	23
0.0979497	0.828327	1.1053	2.12671	24.6186	24
0.105391	0.813963	1.10589	2.15331	23.7544	25
0.113147	0.799065	1.10708	2.17044	22.8739	26
0.121222	0.783671	1.10887	2.17812	21.9812	27
0.129617	0.767819	1.11122	2.17649	21.0802	28
0.138335	0.751546	1.11411	2.16585	20.1746	29
0.147375	0.734889	1.11747	2.1466	19.2681	30
0.156738	0.717881	1.12128	2.11924	18.364	31
0.166423	0.700556	1.12547	2.0843	17.4655	32
0.176428	0.682941	1.12999	2.04237	16.5751	33
0.186749	0.665063	1.1348	1.99404	15.6956	34
0.197383	0.646947	1.13985	1.93983	14.8291	35
0.208324	0.628616	1.14511	1.88025	13.9778	36
0.219564	0.610091	1.15054	1.8157	13.1435	37
0.231096	0.591391	1.15611	1.74651	12.328	38
0.24291	0.572536	1.16181	1.67289	11.5327	39
0.254997	0.553544	1.16761	1.59492	10.7592	40
0.267346	0.534434	1.17351	1.51258	10.0088	41
0.279945	0.515224	1.1795	1.42568	9.28248	42
0.292781	0.495932	1.18557	1.33388	8.58147	43
0.305841	0.476576	1.19175	1.23672	7.90671	44
0.31911	0.457175	1.19802	1.13353	7.25904	45
0.332573	0.437748	1.20441	1.0235	6.63923	46
0.346214	0.418314	1.21094	0.905585	6.04791	47
0.360016	0.398892	1.21761	0.778549	5.48566	48
0.373962	0.379503	1.22445	0.640872	4.9529	49
0.383708	0.366078	1.22857	0.557613	4.60063	50
0.397747	0.346914	1.23568	0.400773	4.1213	51
0.407586	0.3336	1.24002	0.302372	3.80456	52
0.41742	0.320377	1.24446	0.197106	3.50306	53
0.427373	0.30706	1.24698	0.138623	3.21238	54
0.43722	0.293923	1.24845	0.105503	2.93807	55
0.446952	0.280967	1.25014	0.0651499	2.67956	56
0.456617	0.26813	1.25212	0.0150214	2.43521	57
0.466248	0.255392	1.25492	0	2.20432	58
0.475871	0.242761	1.25941	0	1.98677	59
0.485506	0.230256	1.26546	0	1.78264	60
0.495164	0.217895	1.27257	0	1.59191	61
0.504848	0.205688	1.28044	0	1.41438	62
0.514561	0.193643	1.28884	0	1.24974	63
0.522329	0.184168	1.29748	0	1.12761	64
0.532115	0.172428	1.30626	0	0.985267	65
0.53996	0.163168	1.31504	0	0.879982	66
0.547848	0.154002	1.32368	0	0.781843	67
0.555757	0.144949	1.33211	0	0.690805	68
0.563649	0.136045	1.34039	0	0.60694	69
0.571554	0.127248	1.34853	0	0.529589	70
0.579453	0.118575	1.35653	0	0.458637	71
0.587331	0.110033	1.36439	0	0.39389	72
0.595179	0.10163	1.37213	0	0.335126	73
0.602104	0.0943015	1.37968	0	0.287854	74
0.608999	0.0870877	1.38698	0	0.244927	75
0.615845	0.0800023	1.39399	0	0.206221	76
0.623459	0.0722017	1.4008	0	0.167535	77
0.629747	0.0658217	1.4074	0	0.138937	78
0.636362	0.0591729	1.41379	0	0.112035	79
0.642872	0.0526866	1.41997	0	0.0886225	80
0.648885	0.0467469	1.42594	0	0.0696236	81
0.654778	0.0409722	1.43167	0	0.0533776	82
0.660535	0.0353745	1.43716	0	0.0397112	83
0.666138	0.0299654	1.44242	0	0.0284408	84
0.67157	0.0247568	1.44747	0	0.0193765	85
0.676814	0.0197616	1.45233	0	0.0123233	86
0.681851	0.0149944	1.457	0	0.00708139	87
0.686513	0.0106076	1.46149	0	0.00353712	88
0.690929	0.00647475	1.46578	0	0.00131445	89
0.692089	0.00539567	1.46943	0	0.000912052	90
0.692501	0.00501298	1.47201	0	0.000787134	91
0.694432	0.00322705	1.4733	0	0.000326119	92
0.697924	0	1.4733	0	0	93
zone t="J = 5"
0.00574714	1.00002	1.18039	0.329289	36.0168	0
0.00702275	0.998003	1.17801	0.386393	35.8738	1
0.00853255	0.995608	1.17527	0.45226	35.7038	2
0.0102779	0.992821	1.17219	0.526129	35.5063	3
0.0122604	0.989634	1.1688	0.607158	35.2806	4
0.0144822	0.986033	1.16514	0.694431	35.0262	5
0.0169455	0.982007	1.16126	0.786971	34.7423	6
0.019653	0.977539	1.15719	0.883756	34.4281	7
0.0226079	0.972615	1.15298	0.983732	34.0828	8
0.0258134	0.967216	1.14869	1.08583	33.7054	9
0.0292734	0.961324	1.14436	1.18897	33.2952	10
0.032992	0.954918	1.14004	1.29211	32.8514	11
0.0369735	0.947978	1.1358	1.39419	32.373	12
0.0412226	0.940485	1.13168	1.49423	31.8596	13
0.0457442	0.932417	1.12775	1.59126	31.3105	14
0.0505434	0.923756	1.12405	1.68437	30.7255	15
0.0556252	0.914486	1.12065	1.7727	30.1046	16
0.0609948	0.904592	1.11761	1.85547	29.448	17
0.0666574	0.894066	1.11496	1.93191	28.7566	18
0.0726179	0.882903	1.11277	2.00134	28.0316	19
0.0788812	0.871104	1.11108	2.06314	27.2745	20
0.0854518	0.858677	1.10993	2.11674	26.4877	21
0.0923339	0.845637	1.10935	2.16167	25.6737	22
0.0995314	0.832005	1.10936	2.19755	24.8358	23
0.107048	0.817808	1.10997	2.22411	23.9774	24
0.114886	0.803078	1.11119	2.24124	23.1023	25
0.123048	0.787849	1.11299	2.24894	22.2143	26
0.131536	0.772158	1.11534	2.24737	21.3172	27
0.140352	0.756041	1.11822	2.23683	20.4149	28
0.149495	0.739534	1.12158	2.21772	19.5108	29
0.158966	0.722671	1.12537	2.19056	18.6083	30
0.168762	0.705483	1.12955	2.15588	17.7105	31
0.178881	0.687999	1.13406	2.11428	16.8202	32
0.189319	0.670246	1.13885	2.06633	15.9399	33
0.200072	0.65225	1.14389	2.01257	15.0721	34
0.211133	0.634032	1.14913	1.95351	14.2188	35
0.222496	0.615615	1.15455	1.88956	13.3819	36
0.234152	0.597018	1.16011	1.82105	12.5632	37
0.246092	0.578262	1.1658	1.74819	11.7644	38
0.258305	0.559366	1.17159	1.67108	10.9867	39
0.270782	0.540347	1.17749	1.5897	10.2317	40
0.283509	0.521224	1.18347	1.50386	9.50049	41
0.296475	0.502016	1.18955	1.41327	8.79415	42
0.309666	0.48274	1.19573	1.31746	8.1137	43
0.323067	0.463416	1.20201	1.2158	7.46	44
0.336664	0.444061	1.2084	1.1075	6.83384	45
0.350441	0.424696	1.21493	0.991564	6.2359	46
0.364381	0.405339	1.22161	0.866801	5.66673	47
0.378466	0.38601	1.22847	0.731757	5.12681	48
0.388305	0.372633	1.2326	0.650386	4.76965	49
0.402487	0.353522	1.23973	0.496911	4.28284	50
0.412422	0.34025	1.24408	0.400997	3.96096	51
0.422354	0.327067	1.24854	0.298511	3.65425	52
0.43239	0.31381	1.25111	0.242562	3.3587	53
0.442312	0.300744	1.25265	0.211868	3.07971	54
0.452122	0.287856	1.2544	0.1742	2.81643	55
0.461869	0.275084	1.25645	0.127101	2.56719	56
0.471573	0.262401	1.25821	0.0856121	2.33116	57
0.481251	0.249784	1.26049	0.0280769	2.10772	58
0.490912	0.237241	1.26352	0	1.89684	59
0.500569	0.224796	1.26806	0	1.69864	60
0.51024	0.212473	1.27426	0	1.51326	61
0.51993	0.200294	1.28157	0	1.34075	62
0.527684	0.190695	1.28955	0	1.21233	63
0.537438	0.178811	1.29793	0	1.06255	64
0.545265	0.169428	1.30651	0	0.951472	65
0.553133	0.160143	1.31512	0	0.847804	66
0.561023	0.150976	1.32364	0	0.751527	67
0.568895	0.141964	1.33204	0	0.662718	68
0.576781	0.133065	1.3403	0	0.580683	69
0.584661	0.124295	1.34843	0	0.505297	70
0.592522	0.115661	1.35643	0	0.436354	71
0.600352	0.107171	1.3643	0	0.373618	72
0.607267	0.099765	1.372	0	0.322982	73
0.614151	0.0924786	1.3795	0	0.276863	74
0.620987	0.0853251	1.38676	0	0.235132	75
0.628587	0.0774562	1.39379	0	0.193251	76
0.634868	0.0710185	1.4006	0	0.162103	77
0.641475	0.0643134	1.4072	0	0.132631	78
0.647979	0.0577745	1.41359	0	0.106786	79
0.653987	0.0517872	1.41977	0	0.0856167	80
0.659876	0.045968	1.42572	0	0.0673156	81
0.665629	0.040329	1.43144	0	0.0517066	82
0.671229	0.0348814	1.43694	0	0.0386031	83
0.67666	0.0296372	1.44221	0	0.0278124	84
0.681903	0.024609	1.44727	0	0.0191373	85
0.686938	0.0198111	1.45214	0	0.0123768	86
0.691601	0.0153965	1.45682	0	0.00745911	87
0.696019	0.0112379	1.4613	0	0.00396334	88
0.697188	0.0101441	1.46537	0	0.00322693	89
0.697609	0.00975163	1.46869	0	0.00298154	90
0.699542	0.00795713	1.471	0	0.00198447	91
0.703032	0.00472485	1.47215	0	0.000699549	92
0.708137	0	1.47215	0	0	93
zone t="J = 6"
0.00827332	1.00003	1.18174	0.474031	36.0167	0
0.009787	0.997667	1.17902	0.539921	35.8483	1
0.0115371	0.994914	1.17597	0.613817	35.6528	2
0.0135253	0.991766	1.17261	0.694875	35.4294	3
0.0157539	0.98821	1.16899	0.782178	35.1776	4
0.0182253	0.984234	1.16515	0.87475	34.8965	5
0.0209424	0.979823	1.16113	0.971568	34.5856	6
0.0239085	0.974962	1.15697	1.07158	34.2438	7
0.0271273	0.969634	1.15273	1.17371	33.8704	8
0.0306027	0.96382	1.14846	1.27688	33.4646	9
0.0343392	0.9575	1.14421	1.38005	33.0254	10
0.0383416	0.950656	1.14003	1.48215	32.5523	11
0.0426148	0.943267	1.13599	1.58221	32.0444	12
0.0471643	0.935314	1.13212	1.67924	31.5014	13
0.0519954	0.926778	1.1285	1.77236	30.9228	14
0.0571139	0.917643	1.12518	1.86069	30.3087	15
0.0625253	0.907896	1.1222	1.94343	29.6593	16
0.0682353	0.897526	1.11963	2.01984	28.9754	17
0.0742494	0.88653	1.11751	2.08924	28.258	18
0.0805729	0.874906	1.11588	2.15099	27.5088	19
0.0872106	0.862662	1.11478	2.20454	26.7297	20
0.0941672	0.849811	1.11425	2.24943	25.9234	21
0.101447	0.836373	1.1143	2.28527	25.0928	22
0.109052	0.822371	1.11495	2.31181	24.2413	23
0.116987	0.807836	1.11618	2.32894	23.3724	24
0.125253	0.7928	1.118	2.33667	22.4899	25
0.133852	0.777298	1.12036	2.33518	21.5976	26
0.142785	0.761366	1.12324	2.32477	20.6991	27
0.152051	0.745036	1.12659	2.30586	19.7979	28
0.161649	0.728344	1.13037	2.27894	18.8974	29
0.171577	0.71132	1.13453	2.24458	18.0007	30
0.181832	0.693993	1.13902	2.20337	17.1106	31
0.192409	0.67639	1.1438	2.15588	16.2297	32
0.203304	0.658536	1.14882	2.10267	15.3604	33
0.21451	0.640456	1.15405	2.04424	14.505	34
0.22602	0.62217	1.15946	1.981	13.6653	35
0.237824	0.6037	1.16501	1.91329	12.8431	36
0.249915	0.585065	1.17069	1.84133	12.0401	37
0.26228	0.566284	1.17648	1.76523	11.2579	38
0.27491	0.547377	1.18237	1.68496	10.4977	39
0.287792	0.528362	1.18835	1.60039	9.76078	40
0.300914	0.509257	1.19443	1.5112	9.04831	41
0.314263	0.49008	1.20061	1.41697	8.36129	42
0.327824	0.470851	1.2069	1.31708	7.70063	43
0.341582	0.451587	1.21331	1.21079	7.06711	44
0.355522	0.432307	1.21985	1.09714	6.46145	45
0.369628	0.413031	1.22654	0.974993	5.88423	46
0.383882	0.393779	1.23341	0.842967	5.33595	47
0.393833	0.380461	1.23756	0.763752	4.97307	48
0.408188	0.361417	1.24471	0.614111	4.4775	49
0.418239	0.348198	1.24909	0.521013	4.14958	50
0.428288	0.335065	1.25357	0.421667	3.83675	51
0.438426	0.321882	1.25619	0.368541	3.53549	52
0.448439	0.308901	1.25781	0.340517	3.25102	53
0.458343	0.296096	1.25964	0.305791	2.98214	54
0.468188	0.283403	1.26177	0.262	2.72716	55
0.477989	0.270802	1.26362	0.224003	2.48538	56
0.48777	0.25826	1.26598	0.170541	2.25598	57
0.497528	0.245785	1.26813	0.120532	2.0389	58
0.507265	0.233371	1.27046	0.0630278	1.83387	59
0.516985	0.22102	1.27357	0	1.64078	60
0.526691	0.208763	1.27758	0	1.45985	61
0.534454	0.199058	1.28358	0	1.32416	62
0.544197	0.187036	1.29078	0	1.16544	63
0.552021	0.177522	1.29867	0	1.04718	64
0.559884	0.168106	1.30692	0	0.93656	65
0.567766	0.15881	1.3153	0	0.833621	66
0.57563	0.149674	1.32369	0	0.73848	67
0.583508	0.140656	1.33202	0	0.650412	68
0.59138	0.131773	1.34024	0	0.569291	69
0.599233	0.123032	1.34835	0	0.494902	70
0.607055	0.114439	1.35634	0	0.426994	71
0.613968	0.106942	1.36419	0	0.371958	72
0.62085	0.0995696	1.37186	0	0.321649	73
0.627684	0.092335	1.37932	0	0.275935	74
0.635278	0.0843851	1.38656	0	0.229837	75
0.641561	0.077878	1.39359	0	0.19531	76
0.648167	0.0711057	1.4004	0	0.162429	77
0.65467	0.0645037	1.40701	0	0.133347	78
0.660681	0.0584589	1.4134	0	0.109282	79
0.666572	0.052586	1.41957	0	0.0882333	80
0.672328	0.0468967	1.42551	0	0.0700226	81
0.677932	0.0414024	1.43123	0	0.0544596	82
0.683366	0.0361146	1.43672	0	0.0413489	83
0.688614	0.031046	1.442	0	0.0304913	84
0.693654	0.0262105	1.44707	0	0.0216847	85
0.698323	0.0217615	1.45195	0	0.0149138	86
0.702747	0.0175711	1.45663	0	0.00969848	87
0.703931	0.0164569	1.461	0	0.00850174	88
0.704366	0.0160489	1.46485	0	0.00808405	89
0.706307	0.0142397	1.46792	0	0.00636142	90
0.709798	0.0109956	1.47004	0	0.00379159	91
0.714899	0.00626395	1.47109	0	0.00123025	92
0.721658	0	1.47109	0	0	93
zone t="J = 7"
0.0112592	1.00006	1.18349	0.645118	36.0153	0
0.013015	0.997349	1.18047	0.719043	35.822	1
0.0150101	0.994245	1.17716	0.800133	35.6013	2
0.0172469	0.99074	1.17358	0.887471	35.3524	3